n -t 0 -s 1 -S DLABEL -l "sender" -L ""
n -t 0 -s 2 -S DLABEL -l "receiver" -L ""
V -t * -v 1.0a5 -a 0
A -t * -n 1 -p 0 -o 0x7fffffff -c 30 -a 1
A -t * -h 1 -m 1073741823 -s 0
c -t * -i 1 -n green
n -t * -a 0 -s 0 -S UP -v circle -c black -i black
n -t * -a 1 -s 1 -S UP -v circle -c red -i red
n -t * -a 2 -s 2 -S UP -v circle -c blue -i blue
l -t * -s 1 -d 2 -S UP -r 1000000 -D 0.10000000000000001 -c black
+ -t 0 -s 1 -d 2 -p tcp -e 40 -c 1 -i 0 -a 1 -x {1.0 2.0 0 ------- null}
- -t 0 -s 1 -d 2 -p tcp -e 40 -c 1 -i 0 -a 1 -x {1.0 2.0 0 ------- null}
h -t 0 -s 1 -d 2 -p tcp -e 40 -c 1 -i 0 -a 1 -x {1.0 2.0 -1 ------- null}
r -t 0.10032 -s 1 -d 2 -p tcp -e 40 -c 1 -i 0 -a 1 -x {1.0 2.0 0 ------- null}
+ -t 0.10032 -s 2 -d 1 -p ack -e 40 -c 1 -i 1 -a 1 -x {2.0 1.0 0 ------- null}
- -t 0.10032 -s 2 -d 1 -p ack -e 40 -c 1 -i 1 -a 1 -x {2.0 1.0 0 ------- null}
h -t 0.10032 -s 2 -d 1 -p ack -e 40 -c 1 -i 1 -a 1 -x {2.0 1.0 -1 ------- null}
r -t 0.20064 -s 2 -d 1 -p ack -e 40 -c 1 -i 1 -a 1 -x {2.0 1.0 0 ------- null}
+ -t 0.20064 -s 1 -d 2 -p tcp -e 1500 -c 1 -i 2 -a 1 -x {1.0 2.0 1 ------- null}
- -t 0.20064 -s 1 -d 2 -p tcp -e 1500 -c 1 -i 2 -a 1 -x {1.0 2.0 1 ------- null}
h -t 0.20064 -s 1 -d 2 -p tcp -e 1500 -c 1 -i 2 -a 1 -x {1.0 2.0 -1 ------- null}
+ -t 0.20064 -s 1 -d 2 -p tcp -e 1500 -c 1 -i 3 -a 1 -x {1.0 2.0 2 ------- null}
- -t 0.21264 -s 1 -d 2 -p tcp -e 1500 -c 1 -i 3 -a 1 -x {1.0 2.0 2 ------- null}
h -t 0.21264 -s 1 -d 2 -p tcp -e 1500 -c 1 -i 3 -a 1 -x {1.0 2.0 -1 ------- null}
r -t 0.31264 -s 1 -d 2 -p tcp -e 1500 -c 1 -i 2 -a 1 -x {1.0 2.0 1 ------- null}
+ -t 0.31264 -s 2 -d 1 -p ack -e 40 -c 1 -i 4 -a 1 -x {2.0 1.0 1 ------- null}
- -t 0.31264 -s 2 -d 1 -p ack -e 40 -c 1 -i 4 -a 1 -x {2.0 1.0 1 ------- null}
h -t 0.31264 -s 2 -d 1 -p ack -e 40 -c 1 -i 4 -a 1 -x {2.0 1.0 -1 ------- null}
r -t 0.32464 -s 1 -d 2 -p tcp -e 1500 -c 1 -i 3 -a 1 -x {1.0 2.0 2 ------- null}
+ -t 0.32464 -s 2 -d 1 -p ack -e 40 -c 1 -i 5 -a 1 -x {2.0 1.0 2 ------- null}
- -t 0.32464 -s 2 -d 1 -p ack -e 40 -c 1 -i 5 -a 1 -x {2.0 1.0 2 ------- null}
h -t 0.32464 -s 2 -d 1 -p ack -e 40 -c 1 -i 5 -a 1 -x {2.0 1.0 -1 ------- null}
r -t 0.41296 -s 2 -d 1 -p ack -e 40 -c 1 -i 4 -a 1 -x {2.0 1.0 1 ------- null}
+ -t 0.41296 -s 1 -d 2 -p tcp -e 1500 -c 1 -i 6 -a 1 -x {1.0 2.0 3 ------- null}
- -t 0.41296 -s 1 -d 2 -p tcp -e 1500 -c 1 -i 6 -a 1 -x {1.0 2.0 3 ------- null}
h -t 0.41296 -s 1 -d 2 -p tcp -e 1500 -c 1 -i 6 -a 1 -x {1.0 2.0 -1 ------- null}
+ -t 0.41296 -s 1 -d 2 -p tcp -e 1500 -c 1 -i 7 -a 1 -x {1.0 2.0 4 ------- null}
r -t 0.42496 -s 2 -d 1 -p ack -e 40 -c 1 -i 5 -a 1 -x {2.0 1.0 2 ------- null}
+ -t 0.42496 -s 1 -d 2 -p tcp -e 1500 -c 1 -i 8 -a 1 -x {1.0 2.0 5 ------- null}
+ -t 0.42496 -s 1 -d 2 -p tcp -e 1500 -c 1 -i 9 -a 1 -x {1.0 2.0 6 ------- null}
- -t 0.42496 -s 1 -d 2 -p tcp -e 1500 -c 1 -i 7 -a 1 -x {1.0 2.0 4 ------- null}
h -t 0.42496 -s 1 -d 2 -p tcp -e 1500 -c 1 -i 7 -a 1 -x {1.0 2.0 -1 ------- null}
- -t 0.43696 -s 1 -d 2 -p tcp -e 1500 -c 1 -i 8 -a 1 -x {1.0 2.0 5 ------- null}
h -t 0.43696 -s 1 -d 2 -p tcp -e 1500 -c 1 -i 8 -a 1 -x {1.0 2.0 -1 ------- null}
- -t 0.44896 -s 1 -d 2 -p tcp -e 1500 -c 1 -i 9 -a 1 -x {1.0 2.0 6 ------- null}
h -t 0.44896 -s 1 -d 2 -p tcp -e 1500 -c 1 -i 9 -a 1 -x {1.0 2.0 -1 ------- null}
r -t 0.52496 -s 1 -d 2 -p tcp -e 1500 -c 1 -i 6 -a 1 -x {1.0 2.0 3 ------- null}
+ -t 0.52496 -s 2 -d 1 -p ack -e 40 -c 1 -i 10 -a 1 -x {2.0 1.0 3 ------- null}
- -t 0.52496 -s 2 -d 1 -p ack -e 40 -c 1 -i 10 -a 1 -x {2.0 1.0 3 ------- null}
h -t 0.52496 -s 2 -d 1 -p ack -e 40 -c 1 -i 10 -a 1 -x {2.0 1.0 -1 ------- null}
r -t 0.53696 -s 1 -d 2 -p tcp -e 1500 -c 1 -i 7 -a 1 -x {1.0 2.0 4 ------- null}
+ -t 0.53696 -s 2 -d 1 -p ack -e 40 -c 1 -i 11 -a 1 -x {2.0 1.0 4 ------- null}
- -t 0.53696 -s 2 -d 1 -p ack -e 40 -c 1 -i 11 -a 1 -x {2.0 1.0 4 ------- null}
h -t 0.53696 -s 2 -d 1 -p ack -e 40 -c 1 -i 11 -a 1 -x {2.0 1.0 -1 ------- null}
r -t 0.54896 -s 1 -d 2 -p tcp -e 1500 -c 1 -i 8 -a 1 -x {1.0 2.0 5 ------- null}
+ -t 0.54896 -s 2 -d 1 -p ack -e 40 -c 1 -i 12 -a 1 -x {2.0 1.0 5 ------- null}
- -t 0.54896 -s 2 -d 1 -p ack -e 40 -c 1 -i 12 -a 1 -x {2.0 1.0 5 ------- null}
h -t 0.54896 -s 2 -d 1 -p ack -e 40 -c 1 -i 12 -a 1 -x {2.0 1.0 -1 ------- null}
r -t 0.56096 -s 1 -d 2 -p tcp -e 1500 -c 1 -i 9 -a 1 -x {1.0 2.0 6 ------- null}
+ -t 0.56096 -s 2 -d 1 -p ack -e 40 -c 1 -i 13 -a 1 -x {2.0 1.0 6 ------- null}
- -t 0.56096 -s 2 -d 1 -p ack -e 40 -c 1 -i 13 -a 1 -x {2.0 1.0 6 ------- null}
h -t 0.56096 -s 2 -d 1 -p ack -e 40 -c 1 -i 13 -a 1 -x {2.0 1.0 -1 ------- null}
r -t 0.62528 -s 2 -d 1 -p ack -e 40 -c 1 -i 10 -a 1 -x {2.0 1.0 3 ------- null}
+ -t 0.62528 -s 1 -d 2 -p tcp -e 1500 -c 1 -i 14 -a 1 -x {1.0 2.0 7 ------- null}
- -t 0.62528 -s 1 -d 2 -p tcp -e 1500 -c 1 -i 14 -a 1 -x {1.0 2.0 7 ------- null}
h -t 0.62528 -s 1 -d 2 -p tcp -e 1500 -c 1 -i 14 -a 1 -x {1.0 2.0 -1 ------- null}
+ -t 0.62528 -s 1 -d 2 -p tcp -e 1500 -c 1 -i 15 -a 1 -x {1.0 2.0 8 ------- null}
r -t 0.63728 -s 2 -d 1 -p ack -e 40 -c 1 -i 11 -a 1 -x {2.0 1.0 4 ------- null}
+ -t 0.63728 -s 1 -d 2 -p tcp -e 1500 -c 1 -i 16 -a 1 -x {1.0 2.0 9 ------- null}
+ -t 0.63728 -s 1 -d 2 -p tcp -e 1500 -c 1 -i 17 -a 1 -x {1.0 2.0 10 ------- null}
- -t 0.63728 -s 1 -d 2 -p tcp -e 1500 -c 1 -i 15 -a 1 -x {1.0 2.0 8 ------- null}
h -t 0.63728 -s 1 -d 2 -p tcp -e 1500 -c 1 -i 15 -a 1 -x {1.0 2.0 -1 ------- null}
r -t 0.64928 -s 2 -d 1 -p ack -e 40 -c 1 -i 12 -a 1 -x {2.0 1.0 5 ------- null}
+ -t 0.64928 -s 1 -d 2 -p tcp -e 1500 -c 1 -i 18 -a 1 -x {1.0 2.0 11 ------- null}
+ -t 0.64928 -s 1 -d 2 -p tcp -e 1500 -c 1 -i 19 -a 1 -x {1.0 2.0 12 ------- null}
- -t 0.64928 -s 1 -d 2 -p tcp -e 1500 -c 1 -i 16 -a 1 -x {1.0 2.0 9 ------- null}
h -t 0.64928 -s 1 -d 2 -p tcp -e 1500 -c 1 -i 16 -a 1 -x {1.0 2.0 -1 ------- null}
r -t 0.66128 -s 2 -d 1 -p ack -e 40 -c 1 -i 13 -a 1 -x {2.0 1.0 6 ------- null}
+ -t 0.66128 -s 1 -d 2 -p tcp -e 1500 -c 1 -i 20 -a 1 -x {1.0 2.0 13 ------- null}
+ -t 0.66128 -s 1 -d 2 -p tcp -e 1500 -c 1 -i 21 -a 1 -x {1.0 2.0 14 ------- null}
- -t 0.66128 -s 1 -d 2 -p tcp -e 1500 -c 1 -i 17 -a 1 -x {1.0 2.0 10 ------- null}
h -t 0.66128 -s 1 -d 2 -p tcp -e 1500 -c 1 -i 17 -a 1 -x {1.0 2.0 -1 ------- null}
- -t 0.67328 -s 1 -d 2 -p tcp -e 1500 -c 1 -i 18 -a 1 -x {1.0 2.0 11 ------- null}
h -t 0.67328 -s 1 -d 2 -p tcp -e 1500 -c 1 -i 18 -a 1 -x {1.0 2.0 -1 ------- null}
- -t 0.68528 -s 1 -d 2 -p tcp -e 1500 -c 1 -i 19 -a 1 -x {1.0 2.0 12 ------- null}
h -t 0.68528 -s 1 -d 2 -p tcp -e 1500 -c 1 -i 19 -a 1 -x {1.0 2.0 -1 ------- null}
- -t 0.69728 -s 1 -d 2 -p tcp -e 1500 -c 1 -i 20 -a 1 -x {1.0 2.0 13 ------- null}
h -t 0.69728 -s 1 -d 2 -p tcp -e 1500 -c 1 -i 20 -a 1 -x {1.0 2.0 -1 ------- null}
- -t 0.70928 -s 1 -d 2 -p tcp -e 1500 -c 1 -i 21 -a 1 -x {1.0 2.0 14 ------- null}
h -t 0.70928 -s 1 -d 2 -p tcp -e 1500 -c 1 -i 21 -a 1 -x {1.0 2.0 -1 ------- null}
r -t 0.73728 -s 1 -d 2 -p tcp -e 1500 -c 1 -i 14 -a 1 -x {1.0 2.0 7 ------- null}
+ -t 0.73728 -s 2 -d 1 -p ack -e 40 -c 1 -i 22 -a 1 -x {2.0 1.0 7 ------- null}
- -t 0.73728 -s 2 -d 1 -p ack -e 40 -c 1 -i 22 -a 1 -x {2.0 1.0 7 ------- null}
h -t 0.73728 -s 2 -d 1 -p ack -e 40 -c 1 -i 22 -a 1 -x {2.0 1.0 -1 ------- null}
r -t 0.74928 -s 1 -d 2 -p tcp -e 1500 -c 1 -i 15 -a 1 -x {1.0 2.0 8 ------- null}
+ -t 0.74928 -s 2 -d 1 -p ack -e 40 -c 1 -i 23 -a 1 -x {2.0 1.0 8 ------- null}
- -t 0.74928 -s 2 -d 1 -p ack -e 40 -c 1 -i 23 -a 1 -x {2.0 1.0 8 ------- null}
h -t 0.74928 -s 2 -d 1 -p ack -e 40 -c 1 -i 23 -a 1 -x {2.0 1.0 -1 ------- null}
r -t 0.76128 -s 1 -d 2 -p tcp -e 1500 -c 1 -i 16 -a 1 -x {1.0 2.0 9 ------- null}
+ -t 0.76128 -s 2 -d 1 -p ack -e 40 -c 1 -i 24 -a 1 -x {2.0 1.0 9 ------- null}
- -t 0.76128 -s 2 -d 1 -p ack -e 40 -c 1 -i 24 -a 1 -x {2.0 1.0 9 ------- null}
h -t 0.76128 -s 2 -d 1 -p ack -e 40 -c 1 -i 24 -a 1 -x {2.0 1.0 -1 ------- null}
r -t 0.77328 -s 1 -d 2 -p tcp -e 1500 -c 1 -i 17 -a 1 -x {1.0 2.0 10 ------- null}
+ -t 0.77328 -s 2 -d 1 -p ack -e 40 -c 1 -i 25 -a 1 -x {2.0 1.0 10 ------- null}
- -t 0.77328 -s 2 -d 1 -p ack -e 40 -c 1 -i 25 -a 1 -x {2.0 1.0 10 ------- null}
h -t 0.77328 -s 2 -d 1 -p ack -e 40 -c 1 -i 25 -a 1 -x {2.0 1.0 -1 ------- null}
r -t 0.78528 -s 1 -d 2 -p tcp -e 1500 -c 1 -i 18 -a 1 -x {1.0 2.0 11 ------- null}
+ -t 0.78528 -s 2 -d 1 -p ack -e 40 -c 1 -i 26 -a 1 -x {2.0 1.0 11 ------- null}
- -t 0.78528 -s 2 -d 1 -p ack -e 40 -c 1 -i 26 -a 1 -x {2.0 1.0 11 ------- null}
h -t 0.78528 -s 2 -d 1 -p ack -e 40 -c 1 -i 26 -a 1 -x {2.0 1.0 -1 ------- null}
r -t 0.79728 -s 1 -d 2 -p tcp -e 1500 -c 1 -i 19 -a 1 -x {1.0 2.0 12 ------- null}
+ -t 0.79728 -s 2 -d 1 -p ack -e 40 -c 1 -i 27 -a 1 -x {2.0 1.0 12 ------- null}
- -t 0.79728 -s 2 -d 1 -p ack -e 40 -c 1 -i 27 -a 1 -x {2.0 1.0 12 ------- null}
h -t 0.79728 -s 2 -d 1 -p ack -e 40 -c 1 -i 27 -a 1 -x {2.0 1.0 -1 ------- null}
r -t 0.80928 -s 1 -d 2 -p tcp -e 1500 -c 1 -i 20 -a 1 -x {1.0 2.0 13 ------- null}
+ -t 0.80928 -s 2 -d 1 -p ack -e 40 -c 1 -i 28 -a 1 -x {2.0 1.0 13 ------- null}
- -t 0.80928 -s 2 -d 1 -p ack -e 40 -c 1 -i 28 -a 1 -x {2.0 1.0 13 ------- null}
h -t 0.80928 -s 2 -d 1 -p ack -e 40 -c 1 -i 28 -a 1 -x {2.0 1.0 -1 ------- null}
r -t 0.82128 -s 1 -d 2 -p tcp -e 1500 -c 1 -i 21 -a 1 -x {1.0 2.0 14 ------- null}
+ -t 0.82128 -s 2 -d 1 -p ack -e 40 -c 1 -i 29 -a 1 -x {2.0 1.0 14 ------- null}
- -t 0.82128 -s 2 -d 1 -p ack -e 40 -c 1 -i 29 -a 1 -x {2.0 1.0 14 ------- null}
h -t 0.82128 -s 2 -d 1 -p ack -e 40 -c 1 -i 29 -a 1 -x {2.0 1.0 -1 ------- null}
r -t 0.8376 -s 2 -d 1 -p ack -e 40 -c 1 -i 22 -a 1 -x {2.0 1.0 7 ------- null}
+ -t 0.8376 -s 1 -d 2 -p tcp -e 1500 -c 1 -i 30 -a 1 -x {1.0 2.0 15 ------- null}
- -t 0.8376 -s 1 -d 2 -p tcp -e 1500 -c 1 -i 30 -a 1 -x {1.0 2.0 15 ------- null}
h -t 0.8376 -s 1 -d 2 -p tcp -e 1500 -c 1 -i 30 -a 1 -x {1.0 2.0 -1 ------- null}
+ -t 0.8376 -s 1 -d 2 -p tcp -e 1500 -c 1 -i 31 -a 1 -x {1.0 2.0 16 ------- null}
r -t 0.8496 -s 2 -d 1 -p ack -e 40 -c 1 -i 23 -a 1 -x {2.0 1.0 8 ------- null}
+ -t 0.8496 -s 1 -d 2 -p tcp -e 1500 -c 1 -i 32 -a 1 -x {1.0 2.0 17 ------- null}
+ -t 0.8496 -s 1 -d 2 -p tcp -e 1500 -c 1 -i 33 -a 1 -x {1.0 2.0 18 ------- null}
- -t 0.8496 -s 1 -d 2 -p tcp -e 1500 -c 1 -i 31 -a 1 -x {1.0 2.0 16 ------- null}
h -t 0.8496 -s 1 -d 2 -p tcp -e 1500 -c 1 -i 31 -a 1 -x {1.0 2.0 -1 ------- null}
r -t 0.8616 -s 2 -d 1 -p ack -e 40 -c 1 -i 24 -a 1 -x {2.0 1.0 9 ------- null}
+ -t 0.8616 -s 1 -d 2 -p tcp -e 1500 -c 1 -i 34 -a 1 -x {1.0 2.0 19 ------- null}
+ -t 0.8616 -s 1 -d 2 -p tcp -e 1500 -c 1 -i 35 -a 1 -x {1.0 2.0 20 ------- null}
- -t 0.8616 -s 1 -d 2 -p tcp -e 1500 -c 1 -i 32 -a 1 -x {1.0 2.0 17 ------- null}
h -t 0.8616 -s 1 -d 2 -p tcp -e 1500 -c 1 -i 32 -a 1 -x {1.0 2.0 -1 ------- null}
r -t 0.8736 -s 2 -d 1 -p ack -e 40 -c 1 -i 25 -a 1 -x {2.0 1.0 10 ------- null}
+ -t 0.8736 -s 1 -d 2 -p tcp -e 1500 -c 1 -i 36 -a 1 -x {1.0 2.0 21 ------- null}
+ -t 0.8736 -s 1 -d 2 -p tcp -e 1500 -c 1 -i 37 -a 1 -x {1.0 2.0 22 ------- null}
- -t 0.8736 -s 1 -d 2 -p tcp -e 1500 -c 1 -i 33 -a 1 -x {1.0 2.0 18 ------- null}
h -t 0.8736 -s 1 -d 2 -p tcp -e 1500 -c 1 -i 33 -a 1 -x {1.0 2.0 -1 ------- null}
r -t 0.8856 -s 2 -d 1 -p ack -e 40 -c 1 -i 26 -a 1 -x {2.0 1.0 11 ------- null}
+ -t 0.8856 -s 1 -d 2 -p tcp -e 1500 -c 1 -i 38 -a 1 -x {1.0 2.0 23 ------- null}
+ -t 0.8856 -s 1 -d 2 -p tcp -e 1500 -c 1 -i 39 -a 1 -x {1.0 2.0 24 ------- null}
- -t 0.8856 -s 1 -d 2 -p tcp -e 1500 -c 1 -i 34 -a 1 -x {1.0 2.0 19 ------- null}
h -t 0.8856 -s 1 -d 2 -p tcp -e 1500 -c 1 -i 34 -a 1 -x {1.0 2.0 -1 ------- null}
r -t 0.8976 -s 2 -d 1 -p ack -e 40 -c 1 -i 27 -a 1 -x {2.0 1.0 12 ------- null}
+ -t 0.8976 -s 1 -d 2 -p tcp -e 1500 -c 1 -i 40 -a 1 -x {1.0 2.0 25 ------- null}
+ -t 0.8976 -s 1 -d 2 -p tcp -e 1500 -c 1 -i 41 -a 1 -x {1.0 2.0 26 ------- null}
- -t 0.8976 -s 1 -d 2 -p tcp -e 1500 -c 1 -i 35 -a 1 -x {1.0 2.0 20 ------- null}
h -t 0.8976 -s 1 -d 2 -p tcp -e 1500 -c 1 -i 35 -a 1 -x {1.0 2.0 -1 ------- null}
r -t 0.9096 -s 2 -d 1 -p ack -e 40 -c 1 -i 28 -a 1 -x {2.0 1.0 13 ------- null}
+ -t 0.9096 -s 1 -d 2 -p tcp -e 1500 -c 1 -i 42 -a 1 -x {1.0 2.0 27 ------- null}
+ -t 0.9096 -s 1 -d 2 -p tcp -e 1500 -c 1 -i 43 -a 1 -x {1.0 2.0 28 ------- null}
- -t 0.9096 -s 1 -d 2 -p tcp -e 1500 -c 1 -i 36 -a 1 -x {1.0 2.0 21 ------- null}
h -t 0.9096 -s 1 -d 2 -p tcp -e 1500 -c 1 -i 36 -a 1 -x {1.0 2.0 -1 ------- null}
r -t 0.9216 -s 2 -d 1 -p ack -e 40 -c 1 -i 29 -a 1 -x {2.0 1.0 14 ------- null}
+ -t 0.9216 -s 1 -d 2 -p tcp -e 1500 -c 1 -i 44 -a 1 -x {1.0 2.0 29 ------- null}
+ -t 0.9216 -s 1 -d 2 -p tcp -e 1500 -c 1 -i 45 -a 1 -x {1.0 2.0 30 ------- null}
- -t 0.9216 -s 1 -d 2 -p tcp -e 1500 -c 1 -i 37 -a 1 -x {1.0 2.0 22 ------- null}
h -t 0.9216 -s 1 -d 2 -p tcp -e 1500 -c 1 -i 37 -a 1 -x {1.0 2.0 -1 ------- null}
- -t 0.9336 -s 1 -d 2 -p tcp -e 1500 -c 1 -i 38 -a 1 -x {1.0 2.0 23 ------- null}
h -t 0.9336 -s 1 -d 2 -p tcp -e 1500 -c 1 -i 38 -a 1 -x {1.0 2.0 -1 ------- null}
- -t 0.9456 -s 1 -d 2 -p tcp -e 1500 -c 1 -i 39 -a 1 -x {1.0 2.0 24 ------- null}
h -t 0.9456 -s 1 -d 2 -p tcp -e 1500 -c 1 -i 39 -a 1 -x {1.0 2.0 -1 ------- null}
r -t 0.9496 -s 1 -d 2 -p tcp -e 1500 -c 1 -i 30 -a 1 -x {1.0 2.0 15 ------- null}
+ -t 0.9496 -s 2 -d 1 -p ack -e 40 -c 1 -i 46 -a 1 -x {2.0 1.0 15 ------- null}
- -t 0.9496 -s 2 -d 1 -p ack -e 40 -c 1 -i 46 -a 1 -x {2.0 1.0 15 ------- null}
h -t 0.9496 -s 2 -d 1 -p ack -e 40 -c 1 -i 46 -a 1 -x {2.0 1.0 -1 ------- null}
- -t 0.9576 -s 1 -d 2 -p tcp -e 1500 -c 1 -i 40 -a 1 -x {1.0 2.0 25 ------- null}
h -t 0.9576 -s 1 -d 2 -p tcp -e 1500 -c 1 -i 40 -a 1 -x {1.0 2.0 -1 ------- null}
r -t 0.9616 -s 1 -d 2 -p tcp -e 1500 -c 1 -i 31 -a 1 -x {1.0 2.0 16 ------- null}
+ -t 0.9616 -s 2 -d 1 -p ack -e 40 -c 1 -i 47 -a 1 -x {2.0 1.0 16 ------- null}
- -t 0.9616 -s 2 -d 1 -p ack -e 40 -c 1 -i 47 -a 1 -x {2.0 1.0 16 ------- null}
h -t 0.9616 -s 2 -d 1 -p ack -e 40 -c 1 -i 47 -a 1 -x {2.0 1.0 -1 ------- null}
- -t 0.9696 -s 1 -d 2 -p tcp -e 1500 -c 1 -i 41 -a 1 -x {1.0 2.0 26 ------- null}
h -t 0.9696 -s 1 -d 2 -p tcp -e 1500 -c 1 -i 41 -a 1 -x {1.0 2.0 -1 ------- null}
r -t 0.9736 -s 1 -d 2 -p tcp -e 1500 -c 1 -i 32 -a 1 -x {1.0 2.0 17 ------- null}
+ -t 0.9736 -s 2 -d 1 -p ack -e 40 -c 1 -i 48 -a 1 -x {2.0 1.0 17 ------- null}
- -t 0.9736 -s 2 -d 1 -p ack -e 40 -c 1 -i 48 -a 1 -x {2.0 1.0 17 ------- null}
h -t 0.9736 -s 2 -d 1 -p ack -e 40 -c 1 -i 48 -a 1 -x {2.0 1.0 -1 ------- null}
- -t 0.9816 -s 1 -d 2 -p tcp -e 1500 -c 1 -i 42 -a 1 -x {1.0 2.0 27 ------- null}
h -t 0.9816 -s 1 -d 2 -p tcp -e 1500 -c 1 -i 42 -a 1 -x {1.0 2.0 -1 ------- null}
r -t 0.9856 -s 1 -d 2 -p tcp -e 1500 -c 1 -i 33 -a 1 -x {1.0 2.0 18 ------- null}
+ -t 0.9856 -s 2 -d 1 -p ack -e 40 -c 1 -i 49 -a 1 -x {2.0 1.0 18 ------- null}
- -t 0.9856 -s 2 -d 1 -p ack -e 40 -c 1 -i 49 -a 1 -x {2.0 1.0 18 ------- null}
h -t 0.9856 -s 2 -d 1 -p ack -e 40 -c 1 -i 49 -a 1 -x {2.0 1.0 -1 ------- null}
- -t 0.9936 -s 1 -d 2 -p tcp -e 1500 -c 1 -i 43 -a 1 -x {1.0 2.0 28 ------- null}
h -t 0.9936 -s 1 -d 2 -p tcp -e 1500 -c 1 -i 43 -a 1 -x {1.0 2.0 -1 ------- null}
r -t 0.9976 -s 1 -d 2 -p tcp -e 1500 -c 1 -i 34 -a 1 -x {1.0 2.0 19 ------- null}
+ -t 0.9976 -s 2 -d 1 -p ack -e 40 -c 1 -i 50 -a 1 -x {2.0 1.0 19 ------- null}
- -t 0.9976 -s 2 -d 1 -p ack -e 40 -c 1 -i 50 -a 1 -x {2.0 1.0 19 ------- null}
h -t 0.9976 -s 2 -d 1 -p ack -e 40 -c 1 -i 50 -a 1 -x {2.0 1.0 -1 ------- null}
- -t 1.0056 -s 1 -d 2 -p tcp -e 1500 -c 1 -i 44 -a 1 -x {1.0 2.0 29 ------- null}
h -t 1.0056 -s 1 -d 2 -p tcp -e 1500 -c 1 -i 44 -a 1 -x {1.0 2.0 -1 ------- null}
r -t 1.0096 -s 1 -d 2 -p tcp -e 1500 -c 1 -i 35 -a 1 -x {1.0 2.0 20 ------- null}
+ -t 1.0096 -s 2 -d 1 -p ack -e 40 -c 1 -i 51 -a 1 -x {2.0 1.0 20 ------- null}
- -t 1.0096 -s 2 -d 1 -p ack -e 40 -c 1 -i 51 -a 1 -x {2.0 1.0 20 ------- null}
h -t 1.0096 -s 2 -d 1 -p ack -e 40 -c 1 -i 51 -a 1 -x {2.0 1.0 -1 ------- null}
- -t 1.0176 -s 1 -d 2 -p tcp -e 1500 -c 1 -i 45 -a 1 -x {1.0 2.0 30 ------- null}
h -t 1.0176 -s 1 -d 2 -p tcp -e 1500 -c 1 -i 45 -a 1 -x {1.0 2.0 -1 ------- null}
r -t 1.0216 -s 1 -d 2 -p tcp -e 1500 -c 1 -i 36 -a 1 -x {1.0 2.0 21 ------- null}
+ -t 1.0216 -s 2 -d 1 -p ack -e 40 -c 1 -i 52 -a 1 -x {2.0 1.0 21 ------- null}
- -t 1.0216 -s 2 -d 1 -p ack -e 40 -c 1 -i 52 -a 1 -x {2.0 1.0 21 ------- null}
h -t 1.0216 -s 2 -d 1 -p ack -e 40 -c 1 -i 52 -a 1 -x {2.0 1.0 -1 ------- null}
r -t 1.0336 -s 1 -d 2 -p tcp -e 1500 -c 1 -i 37 -a 1 -x {1.0 2.0 22 ------- null}
+ -t 1.0336 -s 2 -d 1 -p ack -e 40 -c 1 -i 53 -a 1 -x {2.0 1.0 22 ------- null}
- -t 1.0336 -s 2 -d 1 -p ack -e 40 -c 1 -i 53 -a 1 -x {2.0 1.0 22 ------- null}
h -t 1.0336 -s 2 -d 1 -p ack -e 40 -c 1 -i 53 -a 1 -x {2.0 1.0 -1 ------- null}
r -t 1.0456 -s 1 -d 2 -p tcp -e 1500 -c 1 -i 38 -a 1 -x {1.0 2.0 23 ------- null}
+ -t 1.0456 -s 2 -d 1 -p ack -e 40 -c 1 -i 54 -a 1 -x {2.0 1.0 23 ------- null}
- -t 1.0456 -s 2 -d 1 -p ack -e 40 -c 1 -i 54 -a 1 -x {2.0 1.0 23 ------- null}
h -t 1.0456 -s 2 -d 1 -p ack -e 40 -c 1 -i 54 -a 1 -x {2.0 1.0 -1 ------- null}
r -t 1.04992 -s 2 -d 1 -p ack -e 40 -c 1 -i 46 -a 1 -x {2.0 1.0 15 ------- null}
+ -t 1.04992 -s 1 -d 2 -p tcp -e 1500 -c 1 -i 55 -a 1 -x {1.0 2.0 31 ------- null}
- -t 1.04992 -s 1 -d 2 -p tcp -e 1500 -c 1 -i 55 -a 1 -x {1.0 2.0 31 ------- null}
h -t 1.04992 -s 1 -d 2 -p tcp -e 1500 -c 1 -i 55 -a 1 -x {1.0 2.0 -1 ------- null}
+ -t 1.04992 -s 1 -d 2 -p tcp -e 1500 -c 1 -i 56 -a 1 -x {1.0 2.0 32 ------- null}
r -t 1.0576 -s 1 -d 2 -p tcp -e 1500 -c 1 -i 39 -a 1 -x {1.0 2.0 24 ------- null}
+ -t 1.0576 -s 2 -d 1 -p ack -e 40 -c 1 -i 57 -a 1 -x {2.0 1.0 24 ------- null}
- -t 1.0576 -s 2 -d 1 -p ack -e 40 -c 1 -i 57 -a 1 -x {2.0 1.0 24 ------- null}
h -t 1.0576 -s 2 -d 1 -p ack -e 40 -c 1 -i 57 -a 1 -x {2.0 1.0 -1 ------- null}
r -t 1.06192 -s 2 -d 1 -p ack -e 40 -c 1 -i 47 -a 1 -x {2.0 1.0 16 ------- null}
+ -t 1.06192 -s 1 -d 2 -p tcp -e 1500 -c 1 -i 58 -a 1 -x {1.0 2.0 33 ------- null}
+ -t 1.06192 -s 1 -d 2 -p tcp -e 1500 -c 1 -i 59 -a 1 -x {1.0 2.0 34 ------- null}
- -t 1.06192 -s 1 -d 2 -p tcp -e 1500 -c 1 -i 56 -a 1 -x {1.0 2.0 32 ------- null}
h -t 1.06192 -s 1 -d 2 -p tcp -e 1500 -c 1 -i 56 -a 1 -x {1.0 2.0 -1 ------- null}
r -t 1.0696 -s 1 -d 2 -p tcp -e 1500 -c 1 -i 40 -a 1 -x {1.0 2.0 25 ------- null}
+ -t 1.0696 -s 2 -d 1 -p ack -e 40 -c 1 -i 60 -a 1 -x {2.0 1.0 25 ------- null}
- -t 1.0696 -s 2 -d 1 -p ack -e 40 -c 1 -i 60 -a 1 -x {2.0 1.0 25 ------- null}
h -t 1.0696 -s 2 -d 1 -p ack -e 40 -c 1 -i 60 -a 1 -x {2.0 1.0 -1 ------- null}
r -t 1.07392 -s 2 -d 1 -p ack -e 40 -c 1 -i 48 -a 1 -x {2.0 1.0 17 ------- null}
+ -t 1.07392 -s 1 -d 2 -p tcp -e 1500 -c 1 -i 61 -a 1 -x {1.0 2.0 35 ------- null}
+ -t 1.07392 -s 1 -d 2 -p tcp -e 1500 -c 1 -i 62 -a 1 -x {1.0 2.0 36 ------- null}
- -t 1.07392 -s 1 -d 2 -p tcp -e 1500 -c 1 -i 58 -a 1 -x {1.0 2.0 33 ------- null}
h -t 1.07392 -s 1 -d 2 -p tcp -e 1500 -c 1 -i 58 -a 1 -x {1.0 2.0 -1 ------- null}
r -t 1.0816 -s 1 -d 2 -p tcp -e 1500 -c 1 -i 41 -a 1 -x {1.0 2.0 26 ------- null}
+ -t 1.0816 -s 2 -d 1 -p ack -e 40 -c 1 -i 63 -a 1 -x {2.0 1.0 26 ------- null}
- -t 1.0816 -s 2 -d 1 -p ack -e 40 -c 1 -i 63 -a 1 -x {2.0 1.0 26 ------- null}
h -t 1.0816 -s 2 -d 1 -p ack -e 40 -c 1 -i 63 -a 1 -x {2.0 1.0 -1 ------- null}
r -t 1.08592 -s 2 -d 1 -p ack -e 40 -c 1 -i 49 -a 1 -x {2.0 1.0 18 ------- null}
+ -t 1.08592 -s 1 -d 2 -p tcp -e 1500 -c 1 -i 64 -a 1 -x {1.0 2.0 37 ------- null}
+ -t 1.08592 -s 1 -d 2 -p tcp -e 1500 -c 1 -i 65 -a 1 -x {1.0 2.0 38 ------- null}
- -t 1.08592 -s 1 -d 2 -p tcp -e 1500 -c 1 -i 59 -a 1 -x {1.0 2.0 34 ------- null}
h -t 1.08592 -s 1 -d 2 -p tcp -e 1500 -c 1 -i 59 -a 1 -x {1.0 2.0 -1 ------- null}
r -t 1.0936 -s 1 -d 2 -p tcp -e 1500 -c 1 -i 42 -a 1 -x {1.0 2.0 27 ------- null}
+ -t 1.0936 -s 2 -d 1 -p ack -e 40 -c 1 -i 66 -a 1 -x {2.0 1.0 27 ------- null}
- -t 1.0936 -s 2 -d 1 -p ack -e 40 -c 1 -i 66 -a 1 -x {2.0 1.0 27 ------- null}
h -t 1.0936 -s 2 -d 1 -p ack -e 40 -c 1 -i 66 -a 1 -x {2.0 1.0 -1 ------- null}
r -t 1.09792 -s 2 -d 1 -p ack -e 40 -c 1 -i 50 -a 1 -x {2.0 1.0 19 ------- null}
+ -t 1.09792 -s 1 -d 2 -p tcp -e 1500 -c 1 -i 67 -a 1 -x {1.0 2.0 39 ------- null}
- -t 1.09792 -s 1 -d 2 -p tcp -e 1500 -c 1 -i 61 -a 1 -x {1.0 2.0 35 ------- null}
h -t 1.09792 -s 1 -d 2 -p tcp -e 1500 -c 1 -i 61 -a 1 -x {1.0 2.0 -1 ------- null}
r -t 1.1056 -s 1 -d 2 -p tcp -e 1500 -c 1 -i 43 -a 1 -x {1.0 2.0 28 ------- null}
+ -t 1.1056 -s 2 -d 1 -p ack -e 40 -c 1 -i 68 -a 1 -x {2.0 1.0 28 ------- null}
- -t 1.1056 -s 2 -d 1 -p ack -e 40 -c 1 -i 68 -a 1 -x {2.0 1.0 28 ------- null}
h -t 1.1056 -s 2 -d 1 -p ack -e 40 -c 1 -i 68 -a 1 -x {2.0 1.0 -1 ------- null}
r -t 1.10992 -s 2 -d 1 -p ack -e 40 -c 1 -i 51 -a 1 -x {2.0 1.0 20 ------- null}
+ -t 1.10992 -s 1 -d 2 -p tcp -e 1500 -c 1 -i 69 -a 1 -x {1.0 2.0 40 ------- null}
- -t 1.10992 -s 1 -d 2 -p tcp -e 1500 -c 1 -i 62 -a 1 -x {1.0 2.0 36 ------- null}
h -t 1.10992 -s 1 -d 2 -p tcp -e 1500 -c 1 -i 62 -a 1 -x {1.0 2.0 -1 ------- null}
r -t 1.1176 -s 1 -d 2 -p tcp -e 1500 -c 1 -i 44 -a 1 -x {1.0 2.0 29 ------- null}
+ -t 1.1176 -s 2 -d 1 -p ack -e 40 -c 1 -i 70 -a 1 -x {2.0 1.0 29 ------- null}
- -t 1.1176 -s 2 -d 1 -p ack -e 40 -c 1 -i 70 -a 1 -x {2.0 1.0 29 ------- null}
h -t 1.1176 -s 2 -d 1 -p ack -e 40 -c 1 -i 70 -a 1 -x {2.0 1.0 -1 ------- null}
r -t 1.12192 -s 2 -d 1 -p ack -e 40 -c 1 -i 52 -a 1 -x {2.0 1.0 21 ------- null}
+ -t 1.12192 -s 1 -d 2 -p tcp -e 1500 -c 1 -i 71 -a 1 -x {1.0 2.0 41 ------- null}
- -t 1.12192 -s 1 -d 2 -p tcp -e 1500 -c 1 -i 64 -a 1 -x {1.0 2.0 37 ------- null}
h -t 1.12192 -s 1 -d 2 -p tcp -e 1500 -c 1 -i 64 -a 1 -x {1.0 2.0 -1 ------- null}
r -t 1.1296 -s 1 -d 2 -p tcp -e 1500 -c 1 -i 45 -a 1 -x {1.0 2.0 30 ------- null}
+ -t 1.1296 -s 2 -d 1 -p ack -e 40 -c 1 -i 72 -a 1 -x {2.0 1.0 30 ------- null}
- -t 1.1296 -s 2 -d 1 -p ack -e 40 -c 1 -i 72 -a 1 -x {2.0 1.0 30 ------- null}
h -t 1.1296 -s 2 -d 1 -p ack -e 40 -c 1 -i 72 -a 1 -x {2.0 1.0 -1 ------- null}
r -t 1.13392 -s 2 -d 1 -p ack -e 40 -c 1 -i 53 -a 1 -x {2.0 1.0 22 ------- null}
+ -t 1.13392 -s 1 -d 2 -p tcp -e 1500 -c 1 -i 73 -a 1 -x {1.0 2.0 42 ------- null}
- -t 1.13392 -s 1 -d 2 -p tcp -e 1500 -c 1 -i 65 -a 1 -x {1.0 2.0 38 ------- null}
h -t 1.13392 -s 1 -d 2 -p tcp -e 1500 -c 1 -i 65 -a 1 -x {1.0 2.0 -1 ------- null}
r -t 1.14592 -s 2 -d 1 -p ack -e 40 -c 1 -i 54 -a 1 -x {2.0 1.0 23 ------- null}
+ -t 1.14592 -s 1 -d 2 -p tcp -e 1500 -c 1 -i 74 -a 1 -x {1.0 2.0 43 ------- null}
- -t 1.14592 -s 1 -d 2 -p tcp -e 1500 -c 1 -i 67 -a 1 -x {1.0 2.0 39 ------- null}
h -t 1.14592 -s 1 -d 2 -p tcp -e 1500 -c 1 -i 67 -a 1 -x {1.0 2.0 -1 ------- null}
r -t 1.15792 -s 2 -d 1 -p ack -e 40 -c 1 -i 57 -a 1 -x {2.0 1.0 24 ------- null}
+ -t 1.15792 -s 1 -d 2 -p tcp -e 1500 -c 1 -i 75 -a 1 -x {1.0 2.0 44 ------- null}
- -t 1.15792 -s 1 -d 2 -p tcp -e 1500 -c 1 -i 69 -a 1 -x {1.0 2.0 40 ------- null}
h -t 1.15792 -s 1 -d 2 -p tcp -e 1500 -c 1 -i 69 -a 1 -x {1.0 2.0 -1 ------- null}
r -t 1.16192 -s 1 -d 2 -p tcp -e 1500 -c 1 -i 55 -a 1 -x {1.0 2.0 31 ------- null}
+ -t 1.16192 -s 2 -d 1 -p ack -e 40 -c 1 -i 76 -a 1 -x {2.0 1.0 31 ------- null}
- -t 1.16192 -s 2 -d 1 -p ack -e 40 -c 1 -i 76 -a 1 -x {2.0 1.0 31 ------- null}
h -t 1.16192 -s 2 -d 1 -p ack -e 40 -c 1 -i 76 -a 1 -x {2.0 1.0 -1 ------- null}
r -t 1.16992 -s 2 -d 1 -p ack -e 40 -c 1 -i 60 -a 1 -x {2.0 1.0 25 ------- null}
+ -t 1.16992 -s 1 -d 2 -p tcp -e 1500 -c 1 -i 77 -a 1 -x {1.0 2.0 45 ------- null}
- -t 1.16992 -s 1 -d 2 -p tcp -e 1500 -c 1 -i 71 -a 1 -x {1.0 2.0 41 ------- null}
h -t 1.16992 -s 1 -d 2 -p tcp -e 1500 -c 1 -i 71 -a 1 -x {1.0 2.0 -1 ------- null}
r -t 1.17392 -s 1 -d 2 -p tcp -e 1500 -c 1 -i 56 -a 1 -x {1.0 2.0 32 ------- null}
+ -t 1.17392 -s 2 -d 1 -p ack -e 40 -c 1 -i 78 -a 1 -x {2.0 1.0 32 ------- null}
- -t 1.17392 -s 2 -d 1 -p ack -e 40 -c 1 -i 78 -a 1 -x {2.0 1.0 32 ------- null}
h -t 1.17392 -s 2 -d 1 -p ack -e 40 -c 1 -i 78 -a 1 -x {2.0 1.0 -1 ------- null}
r -t 1.18192 -s 2 -d 1 -p ack -e 40 -c 1 -i 63 -a 1 -x {2.0 1.0 26 ------- null}
+ -t 1.18192 -s 1 -d 2 -p tcp -e 1500 -c 1 -i 79 -a 1 -x {1.0 2.0 46 ------- null}
- -t 1.18192 -s 1 -d 2 -p tcp -e 1500 -c 1 -i 73 -a 1 -x {1.0 2.0 42 ------- null}
h -t 1.18192 -s 1 -d 2 -p tcp -e 1500 -c 1 -i 73 -a 1 -x {1.0 2.0 -1 ------- null}
r -t 1.18592 -s 1 -d 2 -p tcp -e 1500 -c 1 -i 58 -a 1 -x {1.0 2.0 33 ------- null}
+ -t 1.18592 -s 2 -d 1 -p ack -e 40 -c 1 -i 80 -a 1 -x {2.0 1.0 33 ------- null}
- -t 1.18592 -s 2 -d 1 -p ack -e 40 -c 1 -i 80 -a 1 -x {2.0 1.0 33 ------- null}
h -t 1.18592 -s 2 -d 1 -p ack -e 40 -c 1 -i 80 -a 1 -x {2.0 1.0 -1 ------- null}
r -t 1.19392 -s 2 -d 1 -p ack -e 40 -c 1 -i 66 -a 1 -x {2.0 1.0 27 ------- null}
+ -t 1.19392 -s 1 -d 2 -p tcp -e 1500 -c 1 -i 81 -a 1 -x {1.0 2.0 47 ------- null}
- -t 1.19392 -s 1 -d 2 -p tcp -e 1500 -c 1 -i 74 -a 1 -x {1.0 2.0 43 ------- null}
h -t 1.19392 -s 1 -d 2 -p tcp -e 1500 -c 1 -i 74 -a 1 -x {1.0 2.0 -1 ------- null}
r -t 1.19792 -s 1 -d 2 -p tcp -e 1500 -c 1 -i 59 -a 1 -x {1.0 2.0 34 ------- null}
+ -t 1.19792 -s 2 -d 1 -p ack -e 40 -c 1 -i 82 -a 1 -x {2.0 1.0 34 ------- null}
- -t 1.19792 -s 2 -d 1 -p ack -e 40 -c 1 -i 82 -a 1 -x {2.0 1.0 34 ------- null}
h -t 1.19792 -s 2 -d 1 -p ack -e 40 -c 1 -i 82 -a 1 -x {2.0 1.0 -1 ------- null}
r -t 1.20592 -s 2 -d 1 -p ack -e 40 -c 1 -i 68 -a 1 -x {2.0 1.0 28 ------- null}
+ -t 1.20592 -s 1 -d 2 -p tcp -e 1500 -c 1 -i 83 -a 1 -x {1.0 2.0 48 ------- null}
- -t 1.20592 -s 1 -d 2 -p tcp -e 1500 -c 1 -i 75 -a 1 -x {1.0 2.0 44 ------- null}
h -t 1.20592 -s 1 -d 2 -p tcp -e 1500 -c 1 -i 75 -a 1 -x {1.0 2.0 -1 ------- null}
r -t 1.20992 -s 1 -d 2 -p tcp -e 1500 -c 1 -i 61 -a 1 -x {1.0 2.0 35 ------- null}
+ -t 1.20992 -s 2 -d 1 -p ack -e 40 -c 1 -i 84 -a 1 -x {2.0 1.0 35 ------- null}
- -t 1.20992 -s 2 -d 1 -p ack -e 40 -c 1 -i 84 -a 1 -x {2.0 1.0 35 ------- null}
h -t 1.20992 -s 2 -d 1 -p ack -e 40 -c 1 -i 84 -a 1 -x {2.0 1.0 -1 ------- null}
r -t 1.21792 -s 2 -d 1 -p ack -e 40 -c 1 -i 70 -a 1 -x {2.0 1.0 29 ------- null}
+ -t 1.21792 -s 1 -d 2 -p tcp -e 1500 -c 1 -i 85 -a 1 -x {1.0 2.0 49 ------- null}
- -t 1.21792 -s 1 -d 2 -p tcp -e 1500 -c 1 -i 77 -a 1 -x {1.0 2.0 45 ------- null}
h -t 1.21792 -s 1 -d 2 -p tcp -e 1500 -c 1 -i 77 -a 1 -x {1.0 2.0 -1 ------- null}
r -t 1.22192 -s 1 -d 2 -p tcp -e 1500 -c 1 -i 62 -a 1 -x {1.0 2.0 36 ------- null}
+ -t 1.22192 -s 2 -d 1 -p ack -e 40 -c 1 -i 86 -a 1 -x {2.0 1.0 36 ------- null}
- -t 1.22192 -s 2 -d 1 -p ack -e 40 -c 1 -i 86 -a 1 -x {2.0 1.0 36 ------- null}
h -t 1.22192 -s 2 -d 1 -p ack -e 40 -c 1 -i 86 -a 1 -x {2.0 1.0 -1 ------- null}
r -t 1.22992 -s 2 -d 1 -p ack -e 40 -c 1 -i 72 -a 1 -x {2.0 1.0 30 ------- null}
+ -t 1.22992 -s 1 -d 2 -p tcp -e 1500 -c 1 -i 87 -a 1 -x {1.0 2.0 50 ------- null}
- -t 1.22992 -s 1 -d 2 -p tcp -e 1500 -c 1 -i 79 -a 1 -x {1.0 2.0 46 ------- null}
h -t 1.22992 -s 1 -d 2 -p tcp -e 1500 -c 1 -i 79 -a 1 -x {1.0 2.0 -1 ------- null}
r -t 1.23392 -s 1 -d 2 -p tcp -e 1500 -c 1 -i 64 -a 1 -x {1.0 2.0 37 ------- null}
+ -t 1.23392 -s 2 -d 1 -p ack -e 40 -c 1 -i 88 -a 1 -x {2.0 1.0 37 ------- null}
- -t 1.23392 -s 2 -d 1 -p ack -e 40 -c 1 -i 88 -a 1 -x {2.0 1.0 37 ------- null}
h -t 1.23392 -s 2 -d 1 -p ack -e 40 -c 1 -i 88 -a 1 -x {2.0 1.0 -1 ------- null}
- -t 1.24192 -s 1 -d 2 -p tcp -e 1500 -c 1 -i 81 -a 1 -x {1.0 2.0 47 ------- null}
h -t 1.24192 -s 1 -d 2 -p tcp -e 1500 -c 1 -i 81 -a 1 -x {1.0 2.0 -1 ------- null}
r -t 1.24592 -s 1 -d 2 -p tcp -e 1500 -c 1 -i 65 -a 1 -x {1.0 2.0 38 ------- null}
+ -t 1.24592 -s 2 -d 1 -p ack -e 40 -c 1 -i 89 -a 1 -x {2.0 1.0 38 ------- null}
- -t 1.24592 -s 2 -d 1 -p ack -e 40 -c 1 -i 89 -a 1 -x {2.0 1.0 38 ------- null}
h -t 1.24592 -s 2 -d 1 -p ack -e 40 -c 1 -i 89 -a 1 -x {2.0 1.0 -1 ------- null}
- -t 1.25392 -s 1 -d 2 -p tcp -e 1500 -c 1 -i 83 -a 1 -x {1.0 2.0 48 ------- null}
h -t 1.25392 -s 1 -d 2 -p tcp -e 1500 -c 1 -i 83 -a 1 -x {1.0 2.0 -1 ------- null}
r -t 1.25792 -s 1 -d 2 -p tcp -e 1500 -c 1 -i 67 -a 1 -x {1.0 2.0 39 ------- null}
+ -t 1.25792 -s 2 -d 1 -p ack -e 40 -c 1 -i 90 -a 1 -x {2.0 1.0 39 ------- null}
- -t 1.25792 -s 2 -d 1 -p ack -e 40 -c 1 -i 90 -a 1 -x {2.0 1.0 39 ------- null}
h -t 1.25792 -s 2 -d 1 -p ack -e 40 -c 1 -i 90 -a 1 -x {2.0 1.0 -1 ------- null}
r -t 1.26224 -s 2 -d 1 -p ack -e 40 -c 1 -i 76 -a 1 -x {2.0 1.0 31 ------- null}
+ -t 1.26224 -s 1 -d 2 -p tcp -e 1500 -c 1 -i 91 -a 1 -x {1.0 2.0 51 ------- null}
- -t 1.26592 -s 1 -d 2 -p tcp -e 1500 -c 1 -i 85 -a 1 -x {1.0 2.0 49 ------- null}
h -t 1.26592 -s 1 -d 2 -p tcp -e 1500 -c 1 -i 85 -a 1 -x {1.0 2.0 -1 ------- null}
r -t 1.26992 -s 1 -d 2 -p tcp -e 1500 -c 1 -i 69 -a 1 -x {1.0 2.0 40 ------- null}
+ -t 1.26992 -s 2 -d 1 -p ack -e 40 -c 1 -i 92 -a 1 -x {2.0 1.0 40 ------- null}
- -t 1.26992 -s 2 -d 1 -p ack -e 40 -c 1 -i 92 -a 1 -x {2.0 1.0 40 ------- null}
h -t 1.26992 -s 2 -d 1 -p ack -e 40 -c 1 -i 92 -a 1 -x {2.0 1.0 -1 ------- null}
r -t 1.27424 -s 2 -d 1 -p ack -e 40 -c 1 -i 78 -a 1 -x {2.0 1.0 32 ------- null}
+ -t 1.27424 -s 1 -d 2 -p tcp -e 1500 -c 1 -i 93 -a 1 -x {1.0 2.0 52 ------- null}
- -t 1.27792 -s 1 -d 2 -p tcp -e 1500 -c 1 -i 87 -a 1 -x {1.0 2.0 50 ------- null}
h -t 1.27792 -s 1 -d 2 -p tcp -e 1500 -c 1 -i 87 -a 1 -x {1.0 2.0 -1 ------- null}
r -t 1.28192 -s 1 -d 2 -p tcp -e 1500 -c 1 -i 71 -a 1 -x {1.0 2.0 41 ------- null}
+ -t 1.28192 -s 2 -d 1 -p ack -e 40 -c 1 -i 94 -a 1 -x {2.0 1.0 41 ------- null}
- -t 1.28192 -s 2 -d 1 -p ack -e 40 -c 1 -i 94 -a 1 -x {2.0 1.0 41 ------- null}
h -t 1.28192 -s 2 -d 1 -p ack -e 40 -c 1 -i 94 -a 1 -x {2.0 1.0 -1 ------- null}
r -t 1.28624 -s 2 -d 1 -p ack -e 40 -c 1 -i 80 -a 1 -x {2.0 1.0 33 ------- null}
+ -t 1.28624 -s 1 -d 2 -p tcp -e 1500 -c 1 -i 95 -a 1 -x {1.0 2.0 53 ------- null}
- -t 1.28992 -s 1 -d 2 -p tcp -e 1500 -c 1 -i 91 -a 1 -x {1.0 2.0 51 ------- null}
h -t 1.28992 -s 1 -d 2 -p tcp -e 1500 -c 1 -i 91 -a 1 -x {1.0 2.0 -1 ------- null}
r -t 1.29392 -s 1 -d 2 -p tcp -e 1500 -c 1 -i 73 -a 1 -x {1.0 2.0 42 ------- null}
+ -t 1.29392 -s 2 -d 1 -p ack -e 40 -c 1 -i 96 -a 1 -x {2.0 1.0 42 ------- null}
- -t 1.29392 -s 2 -d 1 -p ack -e 40 -c 1 -i 96 -a 1 -x {2.0 1.0 42 ------- null}