+ 0 1 2 tcp 40 ------- 1 1.0 2.0 0 0
- 0 1 2 tcp 40 ------- 1 1.0 2.0 0 0
r 0.10032 1 2 tcp 40 ------- 1 1.0 2.0 0 0
+ 0.10032 2 1 ack 40 ------- 1 2.0 1.0 0 1
- 0.10032 2 1 ack 40 ------- 1 2.0 1.0 0 1
r 0.20064 2 1 ack 40 ------- 1 2.0 1.0 0 1
+ 0.20064 1 2 tcp 1500 ------- 1 1.0 2.0 1 2
- 0.20064 1 2 tcp 1500 ------- 1 1.0 2.0 1 2
+ 0.20064 1 2 tcp 1500 ------- 1 1.0 2.0 2 3
- 0.21264 1 2 tcp 1500 ------- 1 1.0 2.0 2 3
r 0.31264 1 2 tcp 1500 ------- 1 1.0 2.0 1 2
+ 0.31264 2 1 ack 40 ------- 1 2.0 1.0 1 4
- 0.31264 2 1 ack 40 ------- 1 2.0 1.0 1 4
r 0.32464 1 2 tcp 1500 ------- 1 1.0 2.0 2 3
+ 0.32464 2 1 ack 40 ------- 1 2.0 1.0 2 5
- 0.32464 2 1 ack 40 ------- 1 2.0 1.0 2 5
r 0.41296 2 1 ack 40 ------- 1 2.0 1.0 1 4
+ 0.41296 1 2 tcp 1500 ------- 1 1.0 2.0 3 6
- 0.41296 1 2 tcp 1500 ------- 1 1.0 2.0 3 6
+ 0.41296 1 2 tcp 1500 ------- 1 1.0 2.0 4 7
r 0.42496 2 1 ack 40 ------- 1 2.0 1.0 2 5
+ 0.42496 1 2 tcp 1500 ------- 1 1.0 2.0 5 8
+ 0.42496 1 2 tcp 1500 ------- 1 1.0 2.0 6 9
- 0.42496 1 2 tcp 1500 ------- 1 1.0 2.0 4 7
- 0.43696 1 2 tcp 1500 ------- 1 1.0 2.0 5 8
- 0.44896 1 2 tcp 1500 ------- 1 1.0 2.0 6 9
r 0.52496 1 2 tcp 1500 ------- 1 1.0 2.0 3 6
+ 0.52496 2 1 ack 40 ------- 1 2.0 1.0 3 10
- 0.52496 2 1 ack 40 ------- 1 2.0 1.0 3 10
r 0.53696 1 2 tcp 1500 ------- 1 1.0 2.0 4 7
+ 0.53696 2 1 ack 40 ------- 1 2.0 1.0 4 11
- 0.53696 2 1 ack 40 ------- 1 2.0 1.0 4 11
r 0.54896 1 2 tcp 1500 ------- 1 1.0 2.0 5 8
+ 0.54896 2 1 ack 40 ------- 1 2.0 1.0 5 12
- 0.54896 2 1 ack 40 ------- 1 2.0 1.0 5 12
r 0.56096 1 2 tcp 1500 ------- 1 1.0 2.0 6 9
+ 0.56096 2 1 ack 40 ------- 1 2.0 1.0 6 13
- 0.56096 2 1 ack 40 ------- 1 2.0 1.0 6 13
r 0.62528 2 1 ack 40 ------- 1 2.0 1.0 3 10
+ 0.62528 1 2 tcp 1500 ------- 1 1.0 2.0 7 14
- 0.62528 1 2 tcp 1500 ------- 1 1.0 2.0 7 14
+ 0.62528 1 2 tcp 1500 ------- 1 1.0 2.0 8 15
r 0.63728 2 1 ack 40 ------- 1 2.0 1.0 4 11
+ 0.63728 1 2 tcp 1500 ------- 1 1.0 2.0 9 16
+ 0.63728 1 2 tcp 1500 ------- 1 1.0 2.0 10 17
- 0.63728 1 2 tcp 1500 ------- 1 1.0 2.0 8 15
r 0.64928 2 1 ack 40 ------- 1 2.0 1.0 5 12
+ 0.64928 1 2 tcp 1500 ------- 1 1.0 2.0 11 18
+ 0.64928 1 2 tcp 1500 ------- 1 1.0 2.0 12 19
- 0.64928 1 2 tcp 1500 ------- 1 1.0 2.0 9 16
r 0.66128 2 1 ack 40 ------- 1 2.0 1.0 6 13
+ 0.66128 1 2 tcp 1500 ------- 1 1.0 2.0 13 20
+ 0.66128 1 2 tcp 1500 ------- 1 1.0 2.0 14 21
- 0.66128 1 2 tcp 1500 ------- 1 1.0 2.0 10 17
- 0.67328 1 2 tcp 1500 ------- 1 1.0 2.0 11 18
- 0.68528 1 2 tcp 1500 ------- 1 1.0 2.0 12 19
- 0.69728 1 2 tcp 1500 ------- 1 1.0 2.0 13 20
- 0.70928 1 2 tcp 1500 ------- 1 1.0 2.0 14 21
r 0.73728 1 2 tcp 1500 ------- 1 1.0 2.0 7 14
+ 0.73728 2 1 ack 40 ------- 1 2.0 1.0 7 22
- 0.73728 2 1 ack 40 ------- 1 2.0 1.0 7 22
r 0.74928 1 2 tcp 1500 ------- 1 1.0 2.0 8 15
+ 0.74928 2 1 ack 40 ------- 1 2.0 1.0 8 23
- 0.74928 2 1 ack 40 ------- 1 2.0 1.0 8 23
r 0.76128 1 2 tcp 1500 ------- 1 1.0 2.0 9 16
+ 0.76128 2 1 ack 40 ------- 1 2.0 1.0 9 24
- 0.76128 2 1 ack 40 ------- 1 2.0 1.0 9 24
r 0.77328 1 2 tcp 1500 ------- 1 1.0 2.0 10 17
+ 0.77328 2 1 ack 40 ------- 1 2.0 1.0 10 25
- 0.77328 2 1 ack 40 ------- 1 2.0 1.0 10 25
r 0.78528 1 2 tcp 1500 ------- 1 1.0 2.0 11 18
+ 0.78528 2 1 ack 40 ------- 1 2.0 1.0 11 26
- 0.78528 2 1 ack 40 ------- 1 2.0 1.0 11 26
r 0.79728 1 2 tcp 1500 ------- 1 1.0 2.0 12 19
+ 0.79728 2 1 ack 40 ------- 1 2.0 1.0 12 27
- 0.79728 2 1 ack 40 ------- 1 2.0 1.0 12 27
r 0.80928 1 2 tcp 1500 ------- 1 1.0 2.0 13 20
+ 0.80928 2 1 ack 40 ------- 1 2.0 1.0 13 28
- 0.80928 2 1 ack 40 ------- 1 2.0 1.0 13 28
r 0.82128 1 2 tcp 1500 ------- 1 1.0 2.0 14 21
+ 0.82128 2 1 ack 40 ------- 1 2.0 1.0 14 29
- 0.82128 2 1 ack 40 ------- 1 2.0 1.0 14 29
r 0.8376 2 1 ack 40 ------- 1 2.0 1.0 7 22
+ 0.8376 1 2 tcp 1500 ------- 1 1.0 2.0 15 30
- 0.8376 1 2 tcp 1500 ------- 1 1.0 2.0 15 30
+ 0.8376 1 2 tcp 1500 ------- 1 1.0 2.0 16 31
r 0.8496 2 1 ack 40 ------- 1 2.0 1.0 8 23
+ 0.8496 1 2 tcp 1500 ------- 1 1.0 2.0 17 32
+ 0.8496 1 2 tcp 1500 ------- 1 1.0 2.0 18 33
- 0.8496 1 2 tcp 1500 ------- 1 1.0 2.0 16 31
r 0.8616 2 1 ack 40 ------- 1 2.0 1.0 9 24
+ 0.8616 1 2 tcp 1500 ------- 1 1.0 2.0 19 34
+ 0.8616 1 2 tcp 1500 ------- 1 1.0 2.0 20 35
- 0.8616 1 2 tcp 1500 ------- 1 1.0 2.0 17 32
r 0.8736 2 1 ack 40 ------- 1 2.0 1.0 10 25
+ 0.8736 1 2 tcp 1500 ------- 1 1.0 2.0 21 36
+ 0.8736 1 2 tcp 1500 ------- 1 1.0 2.0 22 37
- 0.8736 1 2 tcp 1500 ------- 1 1.0 2.0 18 33
r 0.8856 2 1 ack 40 ------- 1 2.0 1.0 11 26
+ 0.8856 1 2 tcp 1500 ------- 1 1.0 2.0 23 38
+ 0.8856 1 2 tcp 1500 ------- 1 1.0 2.0 24 39
- 0.8856 1 2 tcp 1500 ------- 1 1.0 2.0 19 34
r 0.8976 2 1 ack 40 ------- 1 2.0 1.0 12 27
+ 0.8976 1 2 tcp 1500 ------- 1 1.0 2.0 25 40
+ 0.8976 1 2 tcp 1500 ------- 1 1.0 2.0 26 41
- 0.8976 1 2 tcp 1500 ------- 1 1.0 2.0 20 35
r 0.9096 2 1 ack 40 ------- 1 2.0 1.0 13 28
+ 0.9096 1 2 tcp 1500 ------- 1 1.0 2.0 27 42
+ 0.9096 1 2 tcp 1500 ------- 1 1.0 2.0 28 43
- 0.9096 1 2 tcp 1500 ------- 1 1.0 2.0 21 36
r 0.9216 2 1 ack 40 ------- 1 2.0 1.0 14 29
+ 0.9216 1 2 tcp 1500 ------- 1 1.0 2.0 29 44
+ 0.9216 1 2 tcp 1500 ------- 1 1.0 2.0 30 45
- 0.9216 1 2 tcp 1500 ------- 1 1.0 2.0 22 37
- 0.9336 1 2 tcp 1500 ------- 1 1.0 2.0 23 38
- 0.9456 1 2 tcp 1500 ------- 1 1.0 2.0 24 39
r 0.9496 1 2 tcp 1500 ------- 1 1.0 2.0 15 30
+ 0.9496 2 1 ack 40 ------- 1 2.0 1.0 15 46
- 0.9496 2 1 ack 40 ------- 1 2.0 1.0 15 46
- 0.9576 1 2 tcp 1500 ------- 1 1.0 2.0 25 40
r 0.9616 1 2 tcp 1500 ------- 1 1.0 2.0 16 31
+ 0.9616 2 1 ack 40 ------- 1 2.0 1.0 16 47
- 0.9616 2 1 ack 40 ------- 1 2.0 1.0 16 47
- 0.9696 1 2 tcp 1500 ------- 1 1.0 2.0 26 41
r 0.9736 1 2 tcp 1500 ------- 1 1.0 2.0 17 32
+ 0.9736 2 1 ack 40 ------- 1 2.0 1.0 17 48
- 0.9736 2 1 ack 40 ------- 1 2.0 1.0 17 48
- 0.9816 1 2 tcp 1500 ------- 1 1.0 2.0 27 42
r 0.9856 1 2 tcp 1500 ------- 1 1.0 2.0 18 33
+ 0.9856 2 1 ack 40 ------- 1 2.0 1.0 18 49
- 0.9856 2 1 ack 40 ------- 1 2.0 1.0 18 49
- 0.9936 1 2 tcp 1500 ------- 1 1.0 2.0 28 43
r 0.9976 1 2 tcp 1500 ------- 1 1.0 2.0 19 34
+ 0.9976 2 1 ack 40 ------- 1 2.0 1.0 19 50
- 0.9976 2 1 ack 40 ------- 1 2.0 1.0 19 50
- 1.0056 1 2 tcp 1500 ------- 1 1.0 2.0 29 44
r 1.0096 1 2 tcp 1500 ------- 1 1.0 2.0 20 35
+ 1.0096 2 1 ack 40 ------- 1 2.0 1.0 20 51
- 1.0096 2 1 ack 40 ------- 1 2.0 1.0 20 51
- 1.0176 1 2 tcp 1500 ------- 1 1.0 2.0 30 45
r 1.0216 1 2 tcp 1500 ------- 1 1.0 2.0 21 36
+ 1.0216 2 1 ack 40 ------- 1 2.0 1.0 21 52
- 1.0216 2 1 ack 40 ------- 1 2.0 1.0 21 52
r 1.0336 1 2 tcp 1500 ------- 1 1.0 2.0 22 37
+ 1.0336 2 1 ack 40 ------- 1 2.0 1.0 22 53
- 1.0336 2 1 ack 40 ------- 1 2.0 1.0 22 53
r 1.0456 1 2 tcp 1500 ------- 1 1.0 2.0 23 38
+ 1.0456 2 1 ack 40 ------- 1 2.0 1.0 23 54
- 1.0456 2 1 ack 40 ------- 1 2.0 1.0 23 54
r 1.04992 2 1 ack 40 ------- 1 2.0 1.0 15 46
+ 1.04992 1 2 tcp 1500 ------- 1 1.0 2.0 31 55
- 1.04992 1 2 tcp 1500 ------- 1 1.0 2.0 31 55
+ 1.04992 1 2 tcp 1500 ------- 1 1.0 2.0 32 56
r 1.0576 1 2 tcp 1500 ------- 1 1.0 2.0 24 39
+ 1.0576 2 1 ack 40 ------- 1 2.0 1.0 24 57
- 1.0576 2 1 ack 40 ------- 1 2.0 1.0 24 57
r 1.06192 2 1 ack 40 ------- 1 2.0 1.0 16 47
+ 1.06192 1 2 tcp 1500 ------- 1 1.0 2.0 33 58
+ 1.06192 1 2 tcp 1500 ------- 1 1.0 2.0 34 59
- 1.06192 1 2 tcp 1500 ------- 1 1.0 2.0 32 56
r 1.0696 1 2 tcp 1500 ------- 1 1.0 2.0 25 40
+ 1.0696 2 1 ack 40 ------- 1 2.0 1.0 25 60
- 1.0696 2 1 ack 40 ------- 1 2.0 1.0 25 60
r 1.07392 2 1 ack 40 ------- 1 2.0 1.0 17 48
+ 1.07392 1 2 tcp 1500 ------- 1 1.0 2.0 35 61
+ 1.07392 1 2 tcp 1500 ------- 1 1.0 2.0 36 62
- 1.07392 1 2 tcp 1500 ------- 1 1.0 2.0 33 58
r 1.0816 1 2 tcp 1500 ------- 1 1.0 2.0 26 41
+ 1.0816 2 1 ack 40 ------- 1 2.0 1.0 26 63
- 1.0816 2 1 ack 40 ------- 1 2.0 1.0 26 63
r 1.08592 2 1 ack 40 ------- 1 2.0 1.0 18 49
+ 1.08592 1 2 tcp 1500 ------- 1 1.0 2.0 37 64
+ 1.08592 1 2 tcp 1500 ------- 1 1.0 2.0 38 65
- 1.08592 1 2 tcp 1500 ------- 1 1.0 2.0 34 59
r 1.0936 1 2 tcp 1500 ------- 1 1.0 2.0 27 42
+ 1.0936 2 1 ack 40 ------- 1 2.0 1.0 27 66
- 1.0936 2 1 ack 40 ------- 1 2.0 1.0 27 66
r 1.09792 2 1 ack 40 ------- 1 2.0 1.0 19 50
+ 1.09792 1 2 tcp 1500 ------- 1 1.0 2.0 39 67
- 1.09792 1 2 tcp 1500 ------- 1 1.0 2.0 35 61
r 1.1056 1 2 tcp 1500 ------- 1 1.0 2.0 28 43
+ 1.1056 2 1 ack 40 ------- 1 2.0 1.0 28 68
- 1.1056 2 1 ack 40 ------- 1 2.0 1.0 28 68
r 1.10992 2 1 ack 40 ------- 1 2.0 1.0 20 51
+ 1.10992 1 2 tcp 1500 ------- 1 1.0 2.0 40 69
- 1.10992 1 2 tcp 1500 ------- 1 1.0 2.0 36 62
r 1.1176 1 2 tcp 1500 ------- 1 1.0 2.0 29 44
+ 1.1176 2 1 ack 40 ------- 1 2.0 1.0 29 70
- 1.1176 2 1 ack 40 ------- 1 2.0 1.0 29 70
r 1.12192 2 1 ack 40 ------- 1 2.0 1.0 21 52
+ 1.12192 1 2 tcp 1500 ------- 1 1.0 2.0 41 71
- 1.12192 1 2 tcp 1500 ------- 1 1.0 2.0 37 64
r 1.1296 1 2 tcp 1500 ------- 1 1.0 2.0 30 45
+ 1.1296 2 1 ack 40 ------- 1 2.0 1.0 30 72
- 1.1296 2 1 ack 40 ------- 1 2.0 1.0 30 72
r 1.13392 2 1 ack 40 ------- 1 2.0 1.0 22 53
+ 1.13392 1 2 tcp 1500 ------- 1 1.0 2.0 42 73
- 1.13392 1 2 tcp 1500 ------- 1 1.0 2.0 38 65
r 1.14592 2 1 ack 40 ------- 1 2.0 1.0 23 54
+ 1.14592 1 2 tcp 1500 ------- 1 1.0 2.0 43 74
- 1.14592 1 2 tcp 1500 ------- 1 1.0 2.0 39 67
r 1.15792 2 1 ack 40 ------- 1 2.0 1.0 24 57
+ 1.15792 1 2 tcp 1500 ------- 1 1.0 2.0 44 75
- 1.15792 1 2 tcp 1500 ------- 1 1.0 2.0 40 69
r 1.16192 1 2 tcp 1500 ------- 1 1.0 2.0 31 55
+ 1.16192 2 1 ack 40 ------- 1 2.0 1.0 31 76
- 1.16192 2 1 ack 40 ------- 1 2.0 1.0 31 76
r 1.16992 2 1 ack 40 ------- 1 2.0 1.0 25 60
+ 1.16992 1 2 tcp 1500 ------- 1 1.0 2.0 45 77
- 1.16992 1 2 tcp 1500 ------- 1 1.0 2.0 41 71
r 1.17392 1 2 tcp 1500 ------- 1 1.0 2.0 32 56
+ 1.17392 2 1 ack 40 ------- 1 2.0 1.0 32 78
- 1.17392 2 1 ack 40 ------- 1 2.0 1.0 32 78
r 1.18192 2 1 ack 40 ------- 1 2.0 1.0 26 63
+ 1.18192 1 2 tcp 1500 ------- 1 1.0 2.0 46 79
- 1.18192 1 2 tcp 1500 ------- 1 1.0 2.0 42 73
r 1.18592 1 2 tcp 1500 ------- 1 1.0 2.0 33 58
+ 1.18592 2 1 ack 40 ------- 1 2.0 1.0 33 80
- 1.18592 2 1 ack 40 ------- 1 2.0 1.0 33 80
r 1.19392 2 1 ack 40 ------- 1 2.0 1.0 27 66
+ 1.19392 1 2 tcp 1500 ------- 1 1.0 2.0 47 81
- 1.19392 1 2 tcp 1500 ------- 1 1.0 2.0 43 74
r 1.19792 1 2 tcp 1500 ------- 1 1.0 2.0 34 59
+ 1.19792 2 1 ack 40 ------- 1 2.0 1.0 34 82
- 1.19792 2 1 ack 40 ------- 1 2.0 1.0 34 82
r 1.20592 2 1 ack 40 ------- 1 2.0 1.0 28 68
+ 1.20592 1 2 tcp 1500 ------- 1 1.0 2.0 48 83
- 1.20592 1 2 tcp 1500 ------- 1 1.0 2.0 44 75
r 1.20992 1 2 tcp 1500 ------- 1 1.0 2.0 35 61
+ 1.20992 2 1 ack 40 ------- 1 2.0 1.0 35 84
- 1.20992 2 1 ack 40 ------- 1 2.0 1.0 35 84
r 1.21792 2 1 ack 40 ------- 1 2.0 1.0 29 70
+ 1.21792 1 2 tcp 1500 ------- 1 1.0 2.0 49 85
- 1.21792 1 2 tcp 1500 ------- 1 1.0 2.0 45 77
r 1.22192 1 2 tcp 1500 ------- 1 1.0 2.0 36 62
+ 1.22192 2 1 ack 40 ------- 1 2.0 1.0 36 86
- 1.22192 2 1 ack 40 ------- 1 2.0 1.0 36 86
r 1.22992 2 1 ack 40 ------- 1 2.0 1.0 30 72
+ 1.22992 1 2 tcp 1500 ------- 1 1.0 2.0 50 87
- 1.22992 1 2 tcp 1500 ------- 1 1.0 2.0 46 79
r 1.23392 1 2 tcp 1500 ------- 1 1.0 2.0 37 64
+ 1.23392 2 1 ack 40 ------- 1 2.0 1.0 37 88
- 1.23392 2 1 ack 40 ------- 1 2.0 1.0 37 88
- 1.24192 1 2 tcp 1500 ------- 1 1.0 2.0 47 81
r 1.24592 1 2 tcp 1500 ------- 1 1.0 2.0 38 65
+ 1.24592 2 1 ack 40 ------- 1 2.0 1.0 38 89
- 1.24592 2 1 ack 40 ------- 1 2.0 1.0 38 89
- 1.25392 1 2 tcp 1500 ------- 1 1.0 2.0 48 83
r 1.25792 1 2 tcp 1500 ------- 1 1.0 2.0 39 67
+ 1.25792 2 1 ack 40 ------- 1 2.0 1.0 39 90
- 1.25792 2 1 ack 40 ------- 1 2.0 1.0 39 90
r 1.26224 2 1 ack 40 ------- 1 2.0 1.0 31 76
+ 1.26224 1 2 tcp 1500 ------- 1 1.0 2.0 51 91
- 1.26592 1 2 tcp 1500 ------- 1 1.0 2.0 49 85
r 1.26992 1 2 tcp 1500 ------- 1 1.0 2.0 40 69
+ 1.26992 2 1 ack 40 ------- 1 2.0 1.0 40 92
- 1.26992 2 1 ack 40 ------- 1 2.0 1.0 40 92
r 1.27424 2 1 ack 40 ------- 1 2.0 1.0 32 78
+ 1.27424 1 2 tcp 1500 ------- 1 1.0 2.0 52 93
- 1.27792 1 2 tcp 1500 ------- 1 1.0 2.0 50 87
r 1.28192 1 2 tcp 1500 ------- 1 1.0 2.0 41 71
+ 1.28192 2 1 ack 40 ------- 1 2.0 1.0 41 94
- 1.28192 2 1 ack 40 ------- 1 2.0 1.0 41 94
r 1.28624 2 1 ack 40 ------- 1 2.0 1.0 33 80
+ 1.28624 1 2 tcp 1500 ------- 1 1.0 2.0 53 95
- 1.28992 1 2 tcp 1500 ------- 1 1.0 2.0 51 91
r 1.29392 1 2 tcp 1500 ------- 1 1.0 2.0 42 73
+ 1.29392 2 1 ack 40 ------- 1 2.0 1.0 42 96
- 1.29392 2 1 ack 40 ------- 1 2.0 1.0 42 96
r 1.29824 2 1 ack 40 ------- 1 2.0 1.0 34 82
+ 1.29824 1 2 tcp 1500 ------- 1 1.0 2.0 54 97
- 1.30192 1 2 tcp 1500 ------- 1 1.0 2.0 52 93
r 1.30592 1 2 tcp 1500 ------- 1 1.0 2.0 43 74
+ 1.30592 2 1 ack 40 ------- 1 2.0 1.0 43 98
- 1.30592 2 1 ack 40 ------- 1 2.0 1.0 43 98
r 1.31024 2 1 ack 40 ------- 1 2.0 1.0 35 84
+ 1.31024 1 2 tcp 1500 ------- 1 1.0 2.0 55 99
- 1.31392 1 2 tcp 1500 ------- 1 1.0 2.0 53 95
r 1.31792 1 2 tcp 1500 ------- 1 1.0 2.0 44 75
+ 1.31792 2 1 ack 40 ------- 1 2.0 1.0 44 100
- 1.31792 2 1 ack 40 ------- 1 2.0 1.0 44 100
r 1.32224 2 1 ack 40 ------- 1 2.0 1.0 36 86
+ 1.32224 1 2 tcp 1500 ------- 1 1.0 2.0 56 101
- 1.32592 1 2 tcp 1500 ------- 1 1.0 2.0 54 97
r 1.32992 1 2 tcp 1500 ------- 1 1.0 2.0 45 77
+ 1.32992 2 1 ack 40 ------- 1 2.0 1.0 45 102
- 1.32992 2 1 ack 40 ------- 1 2.0 1.0 45 102
r 1.33424 2 1 ack 40 ------- 1 2.0 1.0 37 88
+ 1.33424 1 2 tcp 1500 ------- 1 1.0 2.0 57 103
- 1.33792 1 2 tcp 1500 ------- 1 1.0 2.0 55 99
r 1.34192 1 2 tcp 1500 ------- 1 1.0 2.0 46 79
+ 1.34192 2 1 ack 40 ------- 1 2.0 1.0 46 104
- 1.34192 2 1 ack 40 ------- 1 2.0 1.0 46 104
r 1.34624 2 1 ack 40 ------- 1 2.0 1.0 38 89
+ 1.34624 1 2 tcp 1500 ------- 1 1.0 2.0 58 105
- 1.34992 1 2 tcp 1500 ------- 1 1.0 2.0 56 101
r 1.35392 1 2 tcp 1500 ------- 1 1.0 2.0 47 81
+ 1.35392 2 1 ack 40 ------- 1 2.0 1.0 47 106
- 1.35392 2 1 ack 40 ------- 1 2.0 1.0 47 106
r 1.35824 2 1 ack 40 ------- 1 2.0 1.0 39 90
+ 1.35824 1 2 tcp 1500 ------- 1 1.0 2.0 59 107
- 1.36192 1 2 tcp 1500 ------- 1 1.0 2.0 57 103
r 1.36592 1 2 tcp 1500 ------- 1 1.0 2.0 48 83
+ 1.36592 2 1 ack 40 ------- 1 2.0 1.0 48 108
- 1.36592 2 1 ack 40 ------- 1 2.0 1.0 48 108
r 1.37024 2 1 ack 40 ------- 1 2.0 1.0 40 92
+ 1.37024 1 2 tcp 1500 ------- 1 1.0 2.0 60 109
- 1.37392 1 2 tcp 1500 ------- 1 1.0 2.0 58 105
r 1.37792 1 2 tcp 1500 ------- 1 1.0 2.0 49 85
+ 1.37792 2 1 ack 40 ------- 1 2.0 1.0 49 110
- 1.37792 2 1 ack 40 ------- 1 2.0 1.0 49 110
r 1.38224 2 1 ack 40 ------- 1 2.0 1.0 41 94
+ 1.38224 1 2 tcp 1500 ------- 1 1.0 2.0 61 111
- 1.38592 1 2 tcp 1500 ------- 1 1.0 2.0 59 107
r 1.38992 1 2 tcp 1500 ------- 1 1.0 2.0 50 87
+ 1.38992 2 1 ack 40 ------- 1 2.0 1.0 50 112
- 1.38992 2 1 ack 40 ------- 1 2.0 1.0 50 112
r 1.39424 2 1 ack 40 ------- 1 2.0 1.0 42 96
+ 1.39424 1 2 tcp 1500 ------- 1 1.0 2.0 62 113
- 1.39792 1 2 tcp 1500 ------- 1 1.0 2.0 60 109
r 1.40192 1 2 tcp 1500 ------- 1 1.0 2.0 51 91
+ 1.40192 2 1 ack 40 ------- 1 2.0 1.0 51 114
- 1.40192 2 1 ack 40 ------- 1 2.0 1.0 51 114
r 1.40624 2 1 ack 40 ------- 1 2.0 1.0 43 98
+ 1.40624 1 2 tcp 1500 ------- 1 1.0 2.0 63 115
- 1.40992 1 2 tcp 1500 ------- 1 1.0 2.0 61 111
r 1.41392 1 2 tcp 1500 ------- 1 1.0 2.0 52 93
+ 1.41392 2 1 ack 40 ------- 1 2.0 1.0 52 116
- 1.41392 2 1 ack 40 ------- 1 2.0 1.0 52 116
r 1.41824 2 1 ack 40 ------- 1 2.0 1.0 44 100
+ 1.41824 1 2 tcp 1500 ------- 1 1.0 2.0 64 117
- 1.42192 1 2 tcp 1500 ------- 1 1.0 2.0 62 113
r 1.42592 1 2 tcp 1500 ------- 1 1.0 2.0 53 95
+ 1.42592 2 1 ack 40 ------- 1 2.0 1.0 53 118
- 1.42592 2 1 ack 40 ------- 1 2.0 1.0 53 118
r 1.43024 2 1 ack 40 ------- 1 2.0 1.0 45 102
+ 1.43024 1 2 tcp 1500 ------- 1 1.0 2.0 65 119
- 1.43392 1 2 tcp 1500 ------- 1 1.0 2.0 63 115
r 1.43792 1 2 tcp 1500 ------- 1 1.0 2.0 54 97
+ 1.43792 2 1 ack 40 ------- 1 2.0 1.0 54 120
- 1.43792 2 1 ack 40 ------- 1 2.0 1.0 54 120
r 1.44224 2 1 ack 40 ------- 1 2.0 1.0 46 104
+ 1.44224 1 2 tcp 1500 ------- 1 1.0 2.0 66 121
- 1.44592 1 2 tcp 1500 ------- 1 1.0 2.0 64 117
r 1.44992 1 2 tcp 1500 ------- 1 1.0 2.0 55 99
+ 1.44992 2 1 ack 40 ------- 1 2.0 1.0 55 122
- 1.44992 2 1 ack 40 ------- 1 2.0 1.0 55 122
r 1.45424 2 1 ack 40 ------- 1 2.0 1.0 47 106
+ 1.45424 1 2 tcp 1500 ------- 1 1.0 2.0 67 123
- 1.45792 1 2 tcp 1500 ------- 1 1.0 2.0 65 119
r 1.46192 1 2 tcp 1500 ------- 1 1.0 2.0 56 101
+ 1.46192 2 1 ack 40 ------- 1 2.0 1.0 56 124
- 1.46192 2 1 ack 40 ------- 1 2.0 1.0 56 124
r 1.46624 2 1 ack 40 ------- 1 2.0 1.0 48 108
+ 1.46624 1 2 tcp 1500 ------- 1 1.0 2.0 68 125
- 1.46992 1 2 tcp 1500 ------- 1 1.0 2.0 66 121
r 1.47392 1 2 tcp 1500 ------- 1 1.0 2.0 57 103
+ 1.47392 2 1 ack 40 ------- 1 2.0 1.0 57 126
- 1.47392 2 1 ack 40 ------- 1 2.0 1.0 57 126
r 1.47824 2 1 ack 40 ------- 1 2.0 1.0 49 110
+ 1.47824 1 2 tcp 1500 ------- 1 1.0 2.0 69 127
- 1.48192 1 2 tcp 1500 ------- 1 1.0 2.0 67 123
r 1.48592 1 2 tcp 1500 ------- 1 1.0 2.0 58 105
+ 1.48592 2 1 ack 40 ------- 1 2.0 1.0 58 128
- 1.48592 2 1 ack 40 ------- 1 2.0 1.0 58 128
r 1.49024 2 1 ack 40 ------- 1 2.0 1.0 50 112
+ 1.49024 1 2 tcp 1500 ------- 1 1.0 2.0 70 129
- 1.49392 1 2 tcp 1500 ------- 1 1.0 2.0 68 125
r 1.49792 1 2 tcp 1500 ------- 1 1.0 2.0 59 107
+ 1.49792 2 1 ack 40 ------- 1 2.0 1.0 59 130
- 1.49792 2 1 ack 40 ------- 1 2.0 1.0 59 130
r 1.50224 2 1 ack 40 ------- 1 2.0 1.0 51 114
+ 1.50224 1 2 tcp 1500 ------- 1 1.0 2.0 71 131
- 1.50592 1 2 tcp 1500 ------- 1 1.0 2.0 69 127
r 1.50992 1 2 tcp 1500 ------- 1 1.0 2.0 60 109
+ 1.50992 2 1 ack 40 ------- 1 2.0 1.0 60 132
- 1.50992 2 1 ack 40 ------- 1 2.0 1.0 60 132
r 1.51424 2 1 ack 40 ------- 1 2.0 1.0 52 116
+ 1.51424 1 2 tcp 1500 ------- 1 1.0 2.0 72 133
- 1.51792 1 2 tcp 1500 ------- 1 1.0 2.0 70 129
r 1.52192 1 2 tcp 1500 ------- 1 1.0 2.0 61 111
+ 1.52192 2 1 ack 40 ------- 1 2.0 1.0 61 134
- 1.52192 2 1 ack 40 ------- 1 2.0 1.0 61 134
r 1.52624 2 1 ack 40 ------- 1 2.0 1.0 53 118
+ 1.52624 1 2 tcp 1500 ------- 1 1.0 2.0 73 135
- 1.52992 1 2 tcp 1500 ------- 1 1.0 2.0 71 131
r 1.53392 1 2 tcp 1500 ------- 1 1.0 2.0 62 113
+ 1.53392 2 1 ack 40 ------- 1 2.0 1.0 62 136
- 1.53392 2 1 ack 40 ------- 1 2.0 1.0 62 136
r 1.53824 2 1 ack 40 ------- 1 2.0 1.0 54 120
+ 1.53824 1 2 tcp 1500 ------- 1 1.0 2.0 74 137
- 1.54192 1 2 tcp 1500 ------- 1 1.0 2.0 72 133
r 1.54592 1 2 tcp 1500 ------- 1 1.0 2.0 63 115
+ 1.54592 2 1 ack 40 ------- 1 2.0 1.0 63 138
- 1.54592 2 1 ack 40 ------- 1 2.0 1.0 63 138
r 1.55024 2 1 ack 40 ------- 1 2.0 1.0 55 122
+ 1.55024 1 2 tcp 1500 ------- 1 1.0 2.0 75 139
- 1.55392 1 2 tcp 1500 ------- 1 1.0 2.0 73 135
r 1.55792 1 2 tcp 1500 ------- 1 1.0 2.0 64 117
+ 1.55792 2 1 ack 40 ------- 1 2.0 1.0 64 140
- 1.55792 2 1 ack 40 ------- 1 2.0 1.0 64 140
r 1.56224 2 1 ack 40 ------- 1 2.0 1.0 56 124
+ 1.56224 1 2 tcp 1500 ------- 1 1.0 2.0 76 141
- 1.56592 1 2 tcp 1500 ------- 1 1.0 2.0 74 137
r 1.56992 1 2 tcp 1500 ------- 1 1.0 2.0 65 119
+ 1.56992 2 1 ack 40 ------- 1 2.0 1.0 65 142
- 1.56992 2 1 ack 40 ------- 1 2.0 1.0 65 142
r 1.57424 2 1 ack 40 ------- 1 2.0 1.0 57 126
+ 1.57424 1 2 tcp 1500 ------- 1 1.0 2.0 77 143
- 1.57792 1 2 tcp 1500 ------- 1 1.0 2.0 75 139
r 1.58192 1 2 tcp 1500 ------- 1 1.0 2.0 66 121
+ 1.58192 2 1 ack 40 ------- 1 2.0 1.0 66 144
- 1.58192 2 1 ack 40 ------- 1 2.0 1.0 66 144
r 1.58624 2 1 ack 40 ------- 1 2.0 1.0 58 128
+ 1.58624 1 2 tcp 1500 ------- 1 1.0 2.0 78 145
- 1.58992 1 2 tcp 1500 ------- 1 1.0 2.0 76 141
r 1.59392 1 2 tcp 1500 ------- 1 1.0 2.0 67 123
+ 1.59392 2 1 ack 40 ------- 1 2.0 1.0 67 146
- 1.59392 2 1 ack 40 ------- 1 2.0 1.0 67 146
r 1.59824 2 1 ack 40 ------- 1 2.0 1.0 59 130
+ 1.59824 1 2 tcp 1500 ------- 1 1.0 2.0 79 147
- 1.60192 1 2 tcp 1500 ------- 1 1.0 2.0 77 143
r 1.60592 1 2 tcp 1500 ------- 1 1.0 2.0 68 125
+ 1.60592 2 1 ack 40 ------- 1 2.0 1.0 68 148
- 1.60592 2 1 ack 40 ------- 1 2.0 1.0 68 148
r 1.61024 2 1 ack 40 ------- 1 2.0 1.0 60 132
+ 1.61024 1 2 tcp 1500 ------- 1 1.0 2.0 80 149
- 1.61392 1 2 tcp 1500 ------- 1 1.0 2.0 78 145
r 1.61792 1 2 tcp 1500 ------- 1 1.0 2.0 69 127
+ 1.61792 2 1 ack 40 ------- 1 2.0 1.0 69 150
- 1.61792 2 1 ack 40 ------- 1 2.0 1.0 69 150
r 1.62224 2 1 ack 40 ------- 1 2.0 1.0 61 134
+ 1.62224 1 2 tcp 1500 ------- 1 1.0 2.0 81 151
- 1.62592 1 2 tcp 1500 ------- 1 1.0 2.0 79 147
r 1.62992 1 2 tcp 1500 ------- 1 1.0 2.0 70 129
+ 1.62992 2 1 ack 40 ------- 1 2.0 1.0 70 152
- 1.62992 2 1 ack 40 ------- 1 2.0 1.0 70 152
r 1.63424 2 1 ack 40 ------- 1 2.0 1.0 62 136
+ 1.63424 1 2 tcp 1500 ------- 1 1.0 2.0 82 153
- 1.63792 1 2 tcp 1500 ------- 1 1.0 2.0 80 149
r 1.64192 1 2 tcp 1500 ------- 1 1.0 2.0 71 131
+ 1.64192 2 1 ack 40 ------- 1 2.0 1.0 71 154
- 1.64192 2 1 ack 40 ------- 1 2.0 1.0 71 154
r 1.64624 2 1 ack 40 ------- 1 2.0 1.0 63 138
+ 1.64624 1 2 tcp 1500 ------- 1 1.0 2.0 83 155
- 1.64992 1 2 tcp 1500 ------- 1 1.0 2.0 81 151
r 1.65392 1 2 tcp 1500 ------- 1 1.0 2.0 72 133
+ 1.65392 2 1 ack 40 ------- 1 2.0 1.0 72 156
- 1.65392 2 1 ack 40 ------- 1 2.0 1.0 72 156
r 1.65824 2 1 ack 40 ------- 1 2.0 1.0 64 140
+ 1.65824 1 2 tcp 1500 ------- 1 1.0 2.0 84 157
- 1.66192 1 2 tcp 1500 ------- 1 1.0 2.0 82 153
r 1.66592 1 2 tcp 1500 ------- 1 1.0 2.0 73 135
+ 1.66592 2 1 ack 40 ------- 1 2.0 1.0 73 158
- 1.66592 2 1 ack 40 ------- 1 2.0 1.0 73 158
r 1.67024 2 1 ack 40 ------- 1 2.0 1.0 65 142
+ 1.67024 1 2 tcp 1500 ------- 1 1.0 2.0 85 159
- 1.67392 1 2 tcp 1500 ------- 1 1.0 2.0 83 155
r 1.67792 1 2 tcp 1500 ------- 1 1.0 2.0 74 137
+ 1.67792 2 1 ack 40 ------- 1 2.0 1.0 74 160
- 1.67792 2 1 ack 40 ------- 1 2.0 1.0 74 160
r 1.68224 2 1 ack 40 ------- 1 2.0 1.0 66 144
+ 1.68224 1 2 tcp 1500 ------- 1 1.0 2.0 86 161
- 1.68592 1 2 tcp 1500 ------- 1 1.0 2.0 84 157
r 1.68992 1 2 tcp 1500 ------- 1 1.0 2.0 75 139
+ 1.68992 2 1 ack 40 ------- 1 2.0 1.0 75 162
- 1.68992 2 1 ack 40 ------- 1 2.0 1.0 75 162
r 1.69424 2 1 ack 40 ------- 1 2.0 1.0 67 146
+ 1.69424 1 2 tcp 1500 ------- 1 1.0 2.0 87 163
- 1.69792 1 2 tcp 1500 ------- 1 1.0 2.0 85 159
r 1.70192 1 2 tcp 1500 ------- 1 1.0 2.0 76 141
+ 1.70192 2 1 ack 40 ------- 1 2.0 1.0 76 164
- 1.70192 2 1 ack 40 ------- 1 2.0 1.0 76 164
r 1.70624 2 1 ack 40 ------- 1 2.0 1.0 68 148
+ 1.70624 1 2 tcp 1500 ------- 1 1.0 2.0 88 165
- 1.70992 1 2 tcp 1500 ------- 1 1.0 2.0 86 161
r 1.71392 1 2 tcp 1500 ------- 1 1.0 2.0 77 143
+ 1.71392 2 1 ack 40 ------- 1 2.0 1.0 77 166
- 1.71392 2 1 ack 40 ------- 1 2.0 1.0 77 166
r 1.71824 2 1 ack 40 ------- 1 2.0 1.0 69 150
+ 1.71824 1 2 tcp 1500 ------- 1 1.0 2.0 89 167
- 1.72192 1 2 tcp 1500 ------- 1 1.0 2.0 87 163
r 1.72592 1 2 tcp 1500 ------- 1 1.0 2.0 78 145
+ 1.72592 2 1 ack 40 ------- 1 2.0 1.0 78 168
- 1.72592 2 1 ack 40 ------- 1 2.0 1.0 78 168
r 1.73024 2 1 ack 40 ------- 1 2.0 1.0 70 152
+ 1.73024 1 2 tcp 1500 ------- 1 1.0 2.0 90 169
- 1.73392 1 2 tcp 1500 ------- 1 1.0 2.0 88 165
r 1.73792 1 2 tcp 1500 ------- 1 1.0 2.0 79 147
+ 1.73792 2 1 ack 40 ------- 1 2.0 1.0 79 170
- 1.73792 2 1 ack 40 ------- 1 2.0 1.0 79 170
r 1.74224 2 1 ack 40 ------- 1 2.0 1.0 71 154
+ 1.74224 1 2 tcp 1500 ------- 1 1.0 2.0 91 171
- 1.74592 1 2 tcp 1500 ------- 1 1.0 2.0 89 167
r 1.74992 1 2 tcp 1500 ------- 1 1.0 2.0 80 149
+ 1.74992 2 1 ack 40 ------- 1 2.0 1.0 80 172
- 1.74992 2 1 ack 40 ------- 1 2.0 1.0 80 172
r 1.75424 2 1 ack 40 ------- 1 2.0 1.0 72 156
+ 1.75424 1 2 tcp 1500 ------- 1 1.0 2.0 92 173
- 1.75792 1 2 tcp 1500 ------- 1 1.0 2.0 90 169
r 1.76192 1 2 tcp 1500 ------- 1 1.0 2.0 81 151
+ 1.76192 2 1 ack 40 ------- 1 2.0 1.0 81 174
- 1.76192 2 1 ack 40 ------- 1 2.0 1.0 81 174
r 1.76624 2 1 ack 40 ------- 1 2.0 1.0 73 158
+ 1.76624 1 2 tcp 1500 ------- 1 1.0 2.0 93 175
- 1.76992 1 2 tcp 1500 ------- 1 1.0 2.0 91 171
r 1.77392 1 2 tcp 1500 ------- 1 1.0 2.0 82 153
+ 1.77392 2 1 ack 40 ------- 1 2.0 1.0 82 176
- 1.77392 2 1 ack 40 ------- 1 2.0 1.0 82 176
r 1.77824 2 1 ack 40 ------- 1 2.0 1.0 74 160
+ 1.77824 1 2 tcp 1500 ------- 1 1.0 2.0 94 177
- 1.78192 1 2 tcp 1500 ------- 1 1.0 2.0 92 173
r 1.78592 1 2 tcp 1500 ------- 1 1.0 2.0 83 155
+ 1.78592 2 1 ack 40 ------- 1 2.0 1.0 83 178
- 1.78592 2 1 ack 40 ------- 1 2.0 1.0 83 178
r 1.79024 2 1 ack 40 ------- 1 2.0 1.0 75 162
+ 1.79024 1 2 tcp 1500 ------- 1 1.0 2.0 95 179
- 1.79392 1 2 tcp 1500 ------- 1 1.0 2.0 93 175
r 1.79792 1 2 tcp 1500 ------- 1 1.0 2.0 84 157
+ 1.79792 2 1 ack 40 ------- 1 2.0 1.0 84 180
- 1.79792 2 1 ack 40 ------- 1 2.0 1.0 84 180
r 1.80224 2 1 ack 40 ------- 1 2.0 1.0 76 164
+ 1.80224 1 2 tcp 1500 ------- 1 1.0 2.0 96 181
- 1.80592 1 2 tcp 1500 ------- 1 1.0 2.0 94 177
r 1.80992 1 2 tcp 1500 ------- 1 1.0 2.0 85 159
+ 1.80992 2 1 ack 40 ------- 1 2.0 1.0 85 182
- 1.80992 2 1 ack 40 ------- 1 2.0 1.0 85 182
r 1.81424 2 1 ack 40 ------- 1 2.0 1.0 77 166
+ 1.81424 1 2 tcp 1500 ------- 1 1.0 2.0 97 183
- 1.81792 1 2 tcp 1500 ------- 1 1.0 2.0 95 179
r 1.82192 1 2 tcp 1500 ------- 1 1.0 2.0 86 161
+ 1.82192 2 1 ack 40 ------- 1 2.0 1.0 86 184
- 1.82192 2 1 ack 40 ------- 1 2.0 1.0 86 184
r 1.82624 2 1 ack 40 ------- 1 2.0 1.0 78 168
+ 1.82624 1 2 tcp 1500 ------- 1 1.0 2.0 98 185
- 1.82992 1 2 tcp 1500 ------- 1 1.0 2.0 96 181
r 1.83392 1 2 tcp 1500 ------- 1 1.0 2.0 87 163
+ 1.83392 2 1 ack 40 ------- 1 2.0 1.0 87 186
- 1.83392 2 1 ack 40 ------- 1 2.0 1.0 87 186
r 1.83824 2 1 ack 40 ------- 1 2.0 1.0 79 170
+ 1.83824 1 2 tcp 1500 ------- 1 1.0 2.0 99 187
- 1.84192 1 2 tcp 1500 ------- 1 1.0 2.0 97 183
r 1.84592 1 2 tcp 1500 ------- 1 1.0 2.0 88 165
+ 1.84592 2 1 ack 40 ------- 1 2.0 1.0 88 188
- 1.84592 2 1 ack 40 ------- 1 2.0 1.0 88 188
r 1.85024 2 1 ack 40 ------- 1 2.0 1.0 80 172
+ 1.85024 1 2 tcp 1500 ------- 1 1.0 2.0 100 189
- 1.85392 1 2 tcp 1500 ------- 1 1.0 2.0 98 185
r 1.85792 1 2 tcp 1500 ------- 1 1.0 2.0 89 167
+ 1.85792 2 1 ack 40 ------- 1 2.0 1.0 89 190
- 1.85792 2 1 ack 40 ------- 1 2.0 1.0 89 190
r 1.86224 2 1 ack 40 ------- 1 2.0 1.0 81 174
+ 1.86224 1 2 tcp 1500 ------- 1 1.0 2.0 101 191
- 1.86592 1 2 tcp 1500 ------- 1 1.0 2.0 99 187
r 1.86992 1 2 tcp 1500 ------- 1 1.0 2.0 90 169
+ 1.86992 2 1 ack 40 ------- 1 2.0 1.0 90 192
- 1.86992 2 1 ack 40 ------- 1 2.0 1.0 90 192
r 1.87424 2 1 ack 40 ------- 1 2.0 1.0 82 176
+ 1.87424 1 2 tcp 1500 ------- 1 1.0 2.0 102 193
- 1.87792 1 2 tcp 1500 ------- 1 1.0 2.0 100 189
r 1.88192 1 2 tcp 1500 ------- 1 1.0 2.0 91 171
+ 1.88192 2 1 ack 40 ------- 1 2.0 1.0 91 194
- 1.88192 2 1 ack 40 ------- 1 2.0 1.0 91 194
r 1.88624 2 1 ack 40 ------- 1 2.0 1.0 83 178
+ 1.88624 1 2 tcp 1500 ------- 1 1.0 2.0 103 195
- 1.88992 1 2 tcp 1500 ------- 1 1.0 2.0 101 191
r 1.89392 1 2 tcp 1500 ------- 1 1.0 2.0 92 173
+ 1.89392 2 1 ack 40 ------- 1 2.0 1.0 92 196
- 1.89392 2 1 ack 40 ------- 1 2.0 1.0 92 196
r 1.89824 2 1 ack 40 ------- 1 2.0 1.0 84 180
+ 1.89824 1 2 tcp 1500 ------- 1 1.0 2.0 104 197
- 1.90192 1 2 tcp 1500 ------- 1 1.0 2.0 102 193
r 1.90592 1 2 tcp 1500 ------- 1 1.0 2.0 93 175
+ 1.90592 2 1 ack 40 ------- 1 2.0 1.0 93 198
- 1.90592 2 1 ack 40 ------- 1 2.0 1.0 93 198
r 1.91024 2 1 ack 40 ------- 1 2.0 1.0 85 182
+ 1.91024 1 2 tcp 1500 ------- 1 1.0 2.0 105 199
- 1.91392 1 2 tcp 1500 ------- 1 1.0 2.0 103 195
r 1.91792 1 2 tcp 1500 ------- 1 1.0 2.0 94 177
+ 1.91792 2 1 ack 40 ------- 1 2.0 1.0 94 200
- 1.91792 2 1 ack 40 ------- 1 2.0 1.0 94 200
r 1.92224 2 1 ack 40 ------- 1 2.0 1.0 86 184
+ 1.92224 1 2 tcp 1500 ------- 1 1.0 2.0 106 201
- 1.92592 1 2 tcp 1500 ------- 1 1.0 2.0 104 197
r 1.92992 1 2 tcp 1500 ------- 1 1.0 2.0 95 179
+ 1.92992 2 1 ack 40 ------- 1 2.0 1.0 95 202
- 1.92992 2 1 ack 40 ------- 1 2.0 1.0 95 202
r 1.93424 2 1 ack 40 ------- 1 2.0 1.0 87 186
+ 1.93424 1 2 tcp 1500 ------- 1 1.0 2.0 107 203
- 1.93792 1 2 tcp 1500 ------- 1 1.0 2.0 105 199
r 1.94192 1 2 tcp 1500 ------- 1 1.0 2.0 96 181
+ 1.94192 2 1 ack 40 ------- 1 2.0 1.0 96 204
- 1.94192 2 1 ack 40 ------- 1 2.0 1.0 96 204
r 1.94624 2 1 ack 40 ------- 1 2.0 1.0 88 188
+ 1.94624 1 2 tcp 1500 ------- 1 1.0 2.0 108 205
- 1.94992 1 2 tcp 1500 ------- 1 1.0 2.0 106 201
r 1.95392 1 2 tcp 1500 ------- 1 1.0 2.0 97 183
+ 1.95392 2 1 ack 40 ------- 1 2.0 1.0 97 206
- 1.95392 2 1 ack 40 ------- 1 2.0 1.0 97 206
r 1.95824 2 1 ack 40 ------- 1 2.0 1.0 89 190
+ 1.95824 1 2 tcp 1500 ------- 1 1.0 2.0 109 207
- 1.96192 1 2 tcp 1500 ------- 1 1.0 2.0 107 203
r 1.96592 1 2 tcp 1500 ------- 1 1.0 2.0 98 185
+ 1.96592 2 1 ack 40 ------- 1 2.0 1.0 98 208
- 1.96592 2 1 ack 40 ------- 1 2.0 1.0 98 208
r 1.97024 2 1 ack 40 ------- 1 2.0 1.0 90 192
+ 1.97024 1 2 tcp 1500 ------- 1 1.0 2.0 110 209
- 1.97392 1 2 tcp 1500 ------- 1 1.0 2.0 108 205
r 1.97792 1 2 tcp 1500 ------- 1 1.0 2.0 99 187
+ 1.97792 2 1 ack 40 ------- 1 2.0 1.0 99 210
- 1.97792 2 1 ack 40 ------- 1 2.0 1.0 99 210
r 1.98224 2 1 ack 40 ------- 1 2.0 1.0 91 194
+ 1.98224 1 2 tcp 1500 ------- 1 1.0 2.0 111 211
- 1.98592 1 2 tcp 1500 ------- 1 1.0 2.0 109 207
r 1.98992 1 2 tcp 1500 ------- 1 1.0 2.0 100 189
+ 1.98992 2 1 ack 40 ------- 1 2.0 1.0 100 212
- 1.98992 2 1 ack 40 ------- 1 2.0 1.0 100 212
r 1.99424 2 1 ack 40 ------- 1 2.0 1.0 92 196
+ 1.99424 1 2 tcp 1500 ------- 1 1.0 2.0 112 213
- 1.99792 1 2 tcp 1500 ------- 1 1.0 2.0 110 209
r 2.00192 1 2 tcp 1500 ------- 1 1.0 2.0 101 191
+ 2.00192 2 1 ack 40 ------- 1 2.0 1.0 101 214
- 2.00192 2 1 ack 40 ------- 1 2.0 1.0 101 214
r 2.00624 2 1 ack 40 ------- 1 2.0 1.0 93 198
- 2.00992 1 2 tcp 1500 ------- 1 1.0 2.0 111 211
r 2.01392 1 2 tcp 1500 ------- 1 1.0 2.0 102 193
+ 2.01392 2 1 ack 40 ------- 1 2.0 1.0 102 215
- 2.01392 2 1 ack 40 ------- 1 2.0 1.0 102 215
r 2.01824 2 1 ack 40 ------- 1 2.0 1.0 94 200
- 2.02192 1 2 tcp 1500 ------- 1 1.0 2.0 112 213
r 2.02592 1 2 tcp 1500 ------- 1 1.0 2.0 103 195
+ 2.02592 2 1 ack 40 ------- 1 2.0 1.0 103 216
- 2.02592 2 1 ack 40 ------- 1 2.0 1.0 103 216
r 2.03024 2 1 ack 40 ------- 1 2.0 1.0 95 202
r 2.03792 1 2 tcp 1500 ------- 1 1.0 2.0 104 197
+ 2.03792 2 1 ack 40 ------- 1 2.0 1.0 104 217
- 2.03792 2 1 ack 40 ------- 1 2.0 1.0 104 217
r 2.04224 2 1 ack 40 ------- 1 2.0 1.0 96 204
r 2.04992 1 2 tcp 1500 ------- 1 1.0 2.0 105 199
+ 2.04992 2 1 ack 40 ------- 1 2.0 1.0 105 218
- 2.04992 2 1 ack 40 ------- 1 2.0 1.0 105 218
r 2.05424 2 1 ack 40 ------- 1 2.0 1.0 97 206
r 2.06192 1 2 tcp 1500 ------- 1 1.0 2.0 106 201
+ 2.06192 2 1 ack 40 ------- 1 2.0 1.0 106 219
- 2.06192 2 1 ack 40 ------- 1 2.0 1.0 106 219
r 2.06624 2 1 ack 40 ------- 1 2.0 1.0 98 208
r 2.07392 1 2 tcp 1500 ------- 1 1.0 2.0 107 203